,Composition,Formula,e_above_hull,A_atom,P_atom,R_atom,n_A
2520,,K1 Mn4 Fe4 C24 N24,0.17435866641625708,K,Mn,Fe,1.0
2521,,Mg2 Mn4 Co4 C24 N24,0.43437300608804463,Mg,Co,Mn,2.0
2522,,,,,,,
2523,,,,,,,
2524,,Na2 Mn4 Zn4 C24 N24,0.35483571107563083,Na,Zn,Mn,2.0
2525,,,,,,,
2526,,Li1 Mn4 Cr4 C24 N24,0.2931382914131575,Li,Mn,Cr,1.0
2528,,,,,,,
2529,,Ca3 Mn4 Zn4 C24 N24,0.4371259566647474,Ca,Zn,Mn,3.0
2530,,,,,,,
2531,,Ca1 Zn4 Co4 C24 N24,0.33838281869064435,Ca,Zn,Co,1.0
2532,,Li5 Zn4 Co4 C24 N24,0.33353425409163595,Li,Zn,Co,5.0
2533,,Na1 Mn4 Cr4 C24 N24,0.28030302236654947,Na,Mn,Cr,1.0
2534,,Na1 Co4 Os4 C24 N24,0.1824035632521639,Na,Co,Os,1.0
2535,,,,,,,
2536,,Ca7 Mn8 C24 N24,0.5367782129270893,Ca,Mn,Mn,7.0
2537,,,,,,,
2538,,Ca1 V4 Fe4 C24 N24,0.23912352755871247,Ca,V,Fe,1.0
2539,,,,,,,
2540,,K3 V4 Fe4 C24 N24,0.16771426124304867,K,V,Fe,3.0
2541,,,,,,,
2542,,Na1 Zn4 Fe4 C24 N24,0.38235108051602573,Na,Zn,Fe,1.0
2543,,Ca2 V4 Zn4 C24 N24,0.5159244666257461,Ca,Zn,V,2.0
2544,,,,,,,
2545,,,,,,,
2546,,,,,,,
2547,,Na7 Fe4 Co4 C24 N24,0.2443989732109788,Na,Co,Fe,7.0
2548,,,,,,,
2549,,Ca3 Zn4 Cr4 C24 N24,0.4268977753088148,Ca,Zn,Cr,3.0
2550,,,,,,,
2551,,,,,,,
2552,,Na1 Mn4 Co4 C24 N24,0.2069080735946205,Na,Mn,Co,1.0
2553,,,,,,,
2554,,K6 Fe4 Co4 C24 N24,0.1719919845161293,K,Co,Fe,6.0
2555,,Ca3 Co4 Os4 C24 N24,0.2769632342233894,Ca,Co,Os,3.0
2556,,,,,,,
2557,,,,,,,
2558,,Mg7 Mn4 V4 C24 N24,0.7839863874773538,Mg,Mn,V,7.0
2559,,,,,,,
2560,,Ca7 Cr4 Co4 C24 N24,0.6580380108635966,Ca,Cr,Co,7.0
2561,,,,,,,
2562,,,,,,,
2563,,,,,,,
2564,,,,,,,
2565,,Na1 Mn4 V4 C24 N24,0.3612219495595319,Na,Mn,V,1.0
2566,,,,,,,
2567,,Na1 V4 Fe4 C24 N24,0.20854844078760237,Na,V,Fe,1.0
2568,,Ca1 V4 Co4 C24 N24,0.2427435515938008,Ca,V,Co,1.0
2569,,,,,,,
2571,,,,,,,
2572,,Na1 Mn4 V4 C24 N24,0.24569755201567212,Na,V,Mn,1.0
2573,,,,,,,
2574,,K2 Zn4 Cr4 C24 N24,0.3754441726560911,K,Zn,Cr,2.0
2575,,Li7 Fe4 Co4 C24 N24,0.3378818657512701,Li,Co,Fe,7.0
2576,,Ca3 V4 Co4 C24 N24,0.5457579350627118,Ca,Co,V,3.0
2577,,,,,,,
2578,,,,,,,
2579,,,,,,,
2580,,,,,,,
2581,,,,,,,
2582,,,,,,,
2583,,,,,,,
2584,,,,,,,
2585,,Mg1 Zn4 Fe4 C24 N24,0.437297714772515,Mg,Zn,Fe,1.0
2586,,,,,,,
2587,,,,,,,
2588,,Ca3 Zn4 Fe4 C24 N24,0.3111289568342386,Ca,Zn,Fe,3.0
2589,,,,,,,
2590,,,,,,,
2591,,,,,,,
2592,,Ca1 Mn4 Zn4 C24 N24,0.39256764570818703,Ca,Zn,Mn,1.0
2593,,Li1 Zn4 Cr4 C24 N24,0.45003388587841897,Li,Zn,Cr,1.0
2594,,Mg7 Fe4 Co4 C24 N24,0.6605762411281493,Mg,Co,Fe,7.0
2595,,,,,,,
2596,,,,,,,
2597,,Ca1 Zn4 Os4 C24 N24,0.29987068975169606,Ca,Zn,Os,1.0
2598,,,,,,,
2599,,,,,,,
2600,,Ca5 Co4 Os4 C24 N24,0.4154293356890708,Ca,Co,Os,5.0
2601,,Ca1 Zn4 Fe4 C24 N24,0.3917518779888898,Ca,Zn,Fe,1.0
2602,,,,,,,
2603,,Na5 Zn4 Fe4 C24 N24,0.28001524046789594,Na,Zn,Fe,5.0
2604,,,,,,,
2605,,,,,,,
2606,,,,,,,
2607,,Li1 Zn4 Co4 C24 N24,0.3563663190363142,Li,Zn,Co,1.0
2608,,K1 V4 Co4 C24 N24,0.4075501634338021,K,Co,V,1.0
2609,,,,,,,
2610,,Na1 Zn4 Cr4 C24 N24,0.4369054649019892,Na,Zn,Cr,1.0
2611,,,,,,,
2612,,,,,,,
2613,,,,,,,
2614,,Ca3 Zn4 Os4 C24 N24,0.24655936836779713,Ca,Zn,Os,3.0
2615,,,,,,,
2616,,Ca1 V4 Zn4 C24 N24,0.5120887355327479,Ca,Zn,V,1.0
2617,,,,,,,
2618,,,,,,,
2619,,,,,,,
2620,,K1 Cr4 Co4 C24 N24,0.3024703120302945,K,Co,Cr,1.0
2622,,,,,,,
2623,,,,,,,
2624,,,,,,,
2625,,,,,,,
2626,,,,,,,
2627,,,,,,,
2628,,,,,,,
2630,,,,,,,
2631,,,,,,,
2632,,Ca1 Cr8 C24 N24,0.28130248650608003,Ca,Cr,Cr,1.0
2633,,K7 Zn4 Co4 C24 N24,0.2237018573511902,K,Zn,Co,7.0
2634,,K7 Mn8 C24 N24,0.13350884679563357,K,Mn,Mn,7.0
2635,,Mg7 V8 C24 N24,0.8081066868424331,Mg,V,V,7.0
2636,,Ca3 Zn4 Co4 C24 N24,0.3928584086986451,Ca,Zn,Co,3.0
2637,,Li7 Mn4 V4 C24 N24,0.33877557448143136,Li,V,Mn,7.0
2638,,Na1 V4 Cr4 C24 N24,0.33551306534900505,Na,Cr,V,1.0
2639,,K7 Cr4 Fe4 C24 N24,0.10744516743055854,K,Cr,Fe,7.0
2640,,K7 Mn4 V4 C24 N24,0.14524824631944533,K,V,Mn,7.0
2641,,K3 Mn4 Co4 C24 N24,0.2696683541244056,K,Co,Mn,3.0
2642,,Li3 Mn4 V4 C24 N24,0.27743598657305313,Li,V,Mn,3.0
2643,,Na1 Mn8 C24 N24,0.23090562675251292,Na,Mn,Mn,1.0
2644,,,,,,,
2645,,Li8 Cr8 C24 N24,0.39950839439000063,Li,Cr,Cr,8.0
2646,,,,,,,
2647,,Li7 V4 Cr4 C24 N24,0.4622753824179391,Li,Cr,V,7.0
2648,,Na7 Mn4 Zn4 C24 N24,0.2929514999834657,Na,Zn,Mn,7.0
2649,,Ca1 Mn4 V4 C24 N24,0.27903342019029154,Ca,V,Mn,1.0
2650,,Ca5 Co8 C24 N24,0.5198191978123514,Ca,Co,Co,5.0
2651,,Na3 Co8 C24 N24,0.23405918391254055,Na,Co,Co,3.0
2652,,Li8 Mn4 Os4 C24 N24,0.2670904428350003,Li,Mn,Os,8.0
2653,,K8 Mn4 V4 C24 N24,0.1271877279947926,K,V,Mn,8.0
2654,,Ca3 Fe8 C24 N24,0.29944229353728957,Ca,Fe,Fe,3.0
2655,,Ca1 Co8 C24 N24,0.25682720054116714,Ca,Co,Co,1.0
2656,,Na5 Co8 C24 N24,0.25831576650470023,Na,Co,Co,5.0
2657,,Ca8 Cr4 Co4 C24 N24,0.5513247348437496,Ca,Cr,Co,8.0
2659,,,,,,,
2660,,Na8 Cr4 Fe4 C24 N24,0.20977166653645707,Na,Cr,Fe,8.0
2661,,Na7 Mn4 V4 C24 N24,0.2363637448908733,Na,V,Mn,7.0
2662,,,,,,,
2663,,Li8 Cr4 Co4 C24 N24,0.41973862360874836,Li,Cr,Co,8.0
2664,,Na8 Cr4 Co4 C24 N24,0.30372633441406194,Na,Cr,Co,8.0
2665,,,,,,,
2666,,,,,,,
2667,,Ca8 Co8 C24 N24,0.763080123020834,Ca,Co,Co,8.0
2668,,Mg5 Co8 C24 N24,0.5529527249161763,Mg,Co,Co,5.0
2669,,K8 Mn4 Zn4 C24 N24,0.16587627837239527,K,Zn,Mn,8.0
2670,,Mg3 Co8 C24 N24,0.4205164535372896,Mg,Co,Co,3.0
2671,,Li7 Mn4 Fe4 C24 N24,0.3039563954338105,Li,Mn,Fe,7.0
2672,,,,,,,
2673,,Li3 Fe8 C24 N24,0.2576986399628822,Li,Fe,Fe,3.0
2674,,K5 Mn4 Co4 C24 N24,0.19342921772054922,K,Mn,Co,5.0
2675,,Li7 Co8 C24 N24,0.38015649749729974,Li,Co,Co,7.0
2676,,Li7 Co4 Os4 C24 N24,0.28150601258428676,Li,Co,Os,7.0
2677,,Ca8 Co4 Os4 C24 N24,0.6275733469345823,Ca,Co,Os,8.0
2678,,,,,,,
2679,,Ca1 Fe8 C24 N24,0.2645904717692389,Ca,Fe,Fe,1.0
2680,,Na1 V4 Zn4 C24 N24,0.5226248333230412,Na,Zn,V,1.0
2681,,Mg7 Co4 Os4 C24 N24,0.5954438741516404,Mg,Co,Os,7.0
2682,,Na8 Co8 C24 N24,0.3000872880729153,Na,Co,Co,8.0
2683,,Ca3 Co8 C24 N24,0.3756260682830517,Ca,Co,Co,3.0
2684,,,,,,,
2685,,Mg8 Co4 Os4 C24 N24,0.6581567207366676,Mg,Co,Os,8.0
2686,,Li5 Mn4 Fe4 C24 N24,0.25873552991918025,Li,Mn,Fe,5.0
2687,,Na8 Mn4 Fe4 C24 N24,0.205091031223958,Na,Mn,Fe,8.0
2688,,,,,,,
2689,,,,,,,
2690,,,,,,,
2691,,K7 Co8 C24 N24,0.20922463574074257,K,Co,Co,7.0
2692,,,,,,,
2693,,K1 Mn4 Co4 C24 N24,0.28385020238117065,K,Co,Mn,1.0
2695,,Ca7 Mn4 Co4 C24 N24,0.6101091570540733,Ca,Co,Mn,7.0
2696,,,,,,,
2697,,,,,,,
2698,,,,,,,
2699,,,,,,,
2700,,Na8 V4 Co4 C24 N24,0.43231600925781244,Na,Co,V,8.0
2701,,Mg8 Co8 C24 N24,0.754506148385417,Mg,Co,Co,8.0
2702,,,,,,,
2703,,,,,,,
2704,,,,,,,
2705,,,,,,,
2706,,Mg7 V4 Co4 C24 N24,0.8447452225567202,Mg,Co,V,7.0
2707,,Ca3 V4 Zn4 C24 N24,0.48297807496983314,Ca,Zn,V,3.0
2708,,Mg8 V4 Co4 C24 N24,0.9056219977604165,Mg,Co,V,8.0
2709,,,,,,,
2710,,,,,,,
2711,,,,,,,
2712,,,,,,,
2713,,,,,,,
2714,,,,,,,
2715,,,,,,,
2716,,,,,,,
2717,,,,,,,
2718,,,,,,,
2719,,,,,,,
2720,,,,,,,
2721,,,,,,,
2722,,,,,,,
2723,,,,,,,
2724,,,,,,,
2725,,,,,,,
2726,,,,,,,
2727,,,,,,,
2728,,,,,,,
2729,,,,,,,
2730,,,,,,,
2731,,,,,,,
2732,,,,,,,
2733,,,,,,,
2734,,,,,,,
2735,,,,,,,
2736,,,,,,,
2737,,,,,,,
2738,,,,,,,
2739,,,,,,,
2740,,,,,,,
2741,,,,,,,
2742,,,,,,,
2743,,,,,,,
2744,,,,,,,
2745,,,,,,,
2746,,,,,,,
2747,,,,,,,
2748,,,,,,,
2749,,,,,,,
2750,,,,,,,
2751,,,,,,,
2752,,,,,,,
2753,,,,,,,
2754,,,,,,,
2755,,,,,,,
2756,,,,,,,
2757,,,,,,,
2758,,,,,,,
2759,,,,,,,
2760,,,,,,,
2761,,,,,,,
2762,,,,,,,
2763,,,,,,,
2764,,,,,,,
2765,,,,,,,
2766,,,,,,,
2767,,,,,,,
2768,,,,,,,
2769,,,,,,,
2770,,,,,,,
2771,,,,,,,
2772,,,,,,,
2773,,,,,,,
2774,,,,,,,
2775,,,,,,,
2776,,,,,,,
2777,,,,,,,
2778,,,,,,,
2779,,,,,,,
2780,,,,,,,
2781,,,,,,,
2782,,,,,,,
2783,,,,,,,
2784,,,,,,,
2785,,,,,,,
2786,,,,,,,
2787,,,,,,,
2788,,,,,,,
2789,,,,,,,
2790,,,,,,,
2791,,,,,,,
2792,,,,,,,
2793,,,,,,,
2794,,,,,,,
2795,,,,,,,
2796,,,,,,,
2797,,,,,,,
2798,,,,,,,
2799,,,,,,,
2800,,,,,,,
2801,,,,,,,
2802,,,,,,,
2803,,,,,,,
2804,,,,,,,
2805,,,,,,,
2806,,,,,,,
2807,,,,,,,
2808,,,,,,,
2809,,,,,,,
2810,,,,,,,
2811,,,,,,,
2812,,,,,,,
2813,,,,,,,
2814,,,,,,,
2815,,,,,,,
2816,,,,,,,
2817,,,,,,,
2818,,,,,,,
2819,,,,,,,
2820,,,,,,,
2821,,,,,,,
2822,,,,,,,
2823,,,,,,,
2824,,,,,,,
2825,,,,,,,
2826,,,,,,,
2827,,,,,,,
2828,,,,,,,
2829,,,,,,,
2830,,,,,,,
2831,,,,,,,
2832,,,,,,,
2833,,,,,,,
2834,,,,,,,
2835,,,,,,,
2836,,,,,,,
2837,,,,,,,
2838,,,,,,,
2839,,,,,,,
2840,,,,,,,
2841,,,,,,,
2842,,,,,,,
2843,,,,,,,
2844,,,,,,,
2845,,,,,,,
2846,,,,,,,
2847,,,,,,,
2848,,,,,,,
2849,,,,,,,
2850,,,,,,,
2851,,,,,,,
2852,,,,,,,
2853,,,,,,,
2854,,,,,,,
2855,,,,,,,
2856,,,,,,,
2857,,,,,,,
2858,,,,,,,
2859,,,,,,,
2860,,,,,,,
2861,,,,,,,
2862,,,,,,,
2863,,,,,,,
2864,,,,,,,
2865,,,,,,,
2866,,,,,,,
2867,,,,,,,
2868,,,,,,,
2869,,,,,,,
2870,,,,,,,
2871,,,,,,,
2872,,,,,,,
2873,,,,,,,
2874,,,,,,,
2875,,,,,,,
2876,,,,,,,
2877,,,,,,,
2878,,,,,,,
2879,,,,,,,
2880,,,,,,,
2881,,,,,,,
2882,,,,,,,
2883,,,,,,,
2884,,,,,,,
2885,,,,,,,
2886,,,,,,,
2887,,,,,,,
2888,,,,,,,
2889,,,,,,,
2890,,,,,,,
2891,,,,,,,
2892,,,,,,,
2893,,,,,,,
2894,,,,,,,
2895,,,,,,,
2896,,,,,,,
2897,,,,,,,
2898,,,,,,,
2899,,,,,,,
2900,,,,,,,
2901,,,,,,,
2902,,,,,,,
2903,,,,,,,
2904,,,,,,,
2905,,,,,,,
2906,,,,,,,
2907,,,,,,,
2908,,,,,,,
2909,,,,,,,
2910,,,,,,,
2911,,,,,,,
2912,,,,,,,
2913,,,,,,,
2914,,,,,,,
2915,,,,,,,
2916,,,,,,,
2917,,,,,,,
2918,,,,,,,
2919,,,,,,,
2920,,,,,,,
2921,,,,,,,
2922,,,,,,,
2923,,,,,,,
2924,,,,,,,
2925,,,,,,,
2926,,,,,,,
2927,,,,,,,
2928,,,,,,,
2929,,,,,,,
2930,,,,,,,
2931,,,,,,,
2932,,,,,,,
2933,,,,,,,
2934,,,,,,,
2935,,,,,,,
2936,,,,,,,
2937,,,,,,,
2938,,,,,,,
2939,,,,,,,
2940,,,,,,,
2941,,,,,,,
2942,,,,,,,
2943,,,,,,,
2944,,,,,,,
2945,,,,,,,
2946,,,,,,,
2947,,,,,,,
2948,,,,,,,
2949,,,,,,,
2950,,,,,,,
2951,,,,,,,
2952,,,,,,,
2953,,,,,,,
2954,,,,,,,
2955,,,,,,,
2956,,,,,,,
2957,,,,,,,
2958,,,,,,,
2959,,,,,,,
2960,,,,,,,
2961,,,,,,,
2962,,,,,,,
2963,,,,,,,
2964,,,,,,,
2965,,,,,,,
2966,,,,,,,
2967,,,,,,,
2968,,,,,,,
2969,,,,,,,
2970,,,,,,,
2971,,,,,,,
2972,,,,,,,
2973,,,,,,,
2974,,,,,,,
2975,,,,,,,
2976,,,,,,,
2977,,,,,,,
2978,,,,,,,
2979,,,,,,,
2980,,,,,,,
2981,,,,,,,
2982,,,,,,,
2983,,,,,,,
2984,,,,,,,
2985,,,,,,,
2986,,,,,,,
2987,,,,,,,
2988,,,,,,,
2989,,,,,,,
2990,,,,,,,
2991,,,,,,,
2992,,,,,,,
2993,,,,,,,
2994,,,,,,,
2995,,,,,,,
2996,,,,,,,
2997,,,,,,,
2998,,,,,,,
2999,,,,,,,
3000,,,,,,,
3001,,,,,,,
3002,,,,,,,
3003,,,,,,,
3004,,,,,,,
3005,,,,,,,
3006,,,,,,,
3007,,,,,,,
3008,,,,,,,
3009,,,,,,,
3010,,,,,,,
3011,,,,,,,
3012,,,,,,,
3013,,,,,,,
3014,,,,,,,
3015,,,,,,,
3016,,,,,,,
3017,,,,,,,
3018,,,,,,,
3019,,,,,,,
3020,,,,,,,
3021,,,,,,,
3022,,,,,,,
3023,,,,,,,
3024,,,,,,,
3025,,,,,,,
3026,,,,,,,
3027,,,,,,,
3028,,,,,,,
3029,,,,,,,
3030,,,,,,,
3031,,,,,,,
3032,,,,,,,
3033,,,,,,,
3034,,,,,,,
3035,,,,,,,
3036,,,,,,,
3037,,,,,,,
3038,,,,,,,
3039,,,,,,,
3040,,,,,,,
3041,,,,,,,
3042,,,,,,,
3043,,,,,,,
3044,,,,,,,
3045,,,,,,,
3046,,,,,,,
3047,,,,,,,
3048,,,,,,,
3049,,,,,,,
3050,,,,,,,
3051,,,,,,,
3052,,,,,,,
3053,,,,,,,
3054,,,,,,,
3055,,,,,,,
3056,,,,,,,
3057,,,,,,,
3058,,,,,,,
3059,,,,,,,
3060,,,,,,,
3061,,,,,,,
3062,,,,,,,
3063,,,,,,,
3064,,,,,,,
3065,,,,,,,
3066,,,,,,,
3067,,,,,,,
3068,,,,,,,
3069,,,,,,,
3070,,,,,,,
3071,,,,,,,
3072,,,,,,,
3073,,,,,,,
3074,,,,,,,
3075,,,,,,,
3076,,,,,,,
3077,,,,,,,
3078,,,,,,,
3079,,,,,,,
3080,,,,,,,
3081,,,,,,,
3082,,,,,,,
3083,,,,,,,
3084,,,,,,,
3085,,,,,,,
3086,,,,,,,
3087,,,,,,,
3088,,,,,,,
3089,,,,,,,
3090,,,,,,,
3091,,,,,,,
3092,,,,,,,
3093,,,,,,,
3094,,,,,,,
3095,,,,,,,
3096,,,,,,,
3097,,,,,,,
3098,,,,,,,
3099,,,,,,,
3100,,,,,,,
3101,,,,,,,
3102,,,,,,,
3103,,,,,,,
3104,,,,,,,
3105,,,,,,,
3106,,,,,,,
3107,,,,,,,
3108,,,,,,,
3109,,,,,,,
3110,,,,,,,
3111,,,,,,,
3112,,,,,,,
3113,,,,,,,
3114,,,,,,,
3115,,,,,,,
3116,,,,,,,
3117,,,,,,,
3118,,,,,,,
3119,,,,,,,
3120,,,,,,,
3121,,,,,,,
3122,,,,,,,
3123,,,,,,,
3124,,,,,,,
3125,,,,,,,
3126,,,,,,,
3127,,,,,,,
3128,,,,,,,
3129,,,,,,,
3130,,,,,,,
3131,,,,,,,
3132,,,,,,,
3133,,,,,,,
3134,,,,,,,
3135,,,,,,,
3136,,,,,,,
3137,,,,,,,
3138,,,,,,,
3139,,,,,,,
3140,,,,,,,
3141,,,,,,,
3142,,,,,,,
3143,,,,,,,
3144,,,,,,,
3145,,,,,,,
3146,,,,,,,
3147,,,,,,,
3148,,,,,,,
3149,,,,,,,
3150,,,,,,,
3151,,,,,,,
3152,,,,,,,
3153,,,,,,,
3154,,,,,,,
3155,,,,,,,
3156,,,,,,,
3157,,,,,,,
3158,,,,,,,
3159,,,,,,,
3160,,,,,,,
3161,,,,,,,
3162,,,,,,,
3163,,,,,,,
3164,,,,,,,
3165,,,,,,,
3166,,,,,,,
3167,,,,,,,
3168,,,,,,,
3169,,,,,,,
3170,,,,,,,
3171,,,,,,,
3172,,,,,,,
3173,,,,,,,
3174,,,,,,,
3175,,,,,,,
3176,,,,,,,
3177,,,,,,,
3178,,,,,,,
3179,,,,,,,
3180,,,,,,,
3181,,,,,,,
3182,,,,,,,
3183,,,,,,,
3184,,,,,,,
3185,,,,,,,
3186,,,,,,,
3187,,,,,,,
3188,,,,,,,
3189,,,,,,,
3190,,,,,,,
3191,,,,,,,
3192,,,,,,,
3193,,,,,,,
3194,,,,,,,
3195,,,,,,,
3196,,,,,,,
3197,,,,,,,
3198,,,,,,,
3199,,,,,,,
3200,,,,,,,
3201,,,,,,,
3202,,,,,,,
3203,,,,,,,
3204,,,,,,,
3205,,,,,,,
3206,,,,,,,
3207,,,,,,,
3208,,,,,,,
3209,,,,,,,
3210,,,,,,,
3211,,,,,,,
3212,,,,,,,
3213,,,,,,,
3214,,,,,,,
3215,,,,,,,
3216,,,,,,,
3217,,,,,,,
3218,,,,,,,
3219,,,,,,,
3220,,,,,,,
3221,,,,,,,
3222,,,,,,,
3223,,,,,,,
3224,,,,,,,
3225,,,,,,,
3226,,,,,,,
3227,,,,,,,
3228,,,,,,,
3229,,,,,,,
3230,,,,,,,
3231,,,,,,,
3232,,,,,,,
3233,,,,,,,
3234,,,,,,,
3235,,,,,,,
3236,,,,,,,
3237,,,,,,,
3238,,,,,,,
3239,,,,,,,
3240,,,,,,,
3241,,,,,,,
3242,,,,,,,
3243,,,,,,,
3244,,,,,,,
3245,,,,,,,
3246,,,,,,,
3247,,,,,,,
3248,,,,,,,
3249,,,,,,,
3250,,,,,,,
3251,,,,,,,
3252,,,,,,,
3253,,,,,,,
3254,,,,,,,
3255,,,,,,,
3256,,,,,,,
3257,,,,,,,
3258,,,,,,,
3259,,,,,,,
3260,,,,,,,
3261,,,,,,,
3262,,,,,,,
3263,,,,,,,
3264,,,,,,,
3265,,,,,,,
3266,,,,,,,
3267,,,,,,,
3268,,,,,,,
3269,,,,,,,
3270,,,,,,,
3271,,,,,,,
3272,,,,,,,
3273,,,,,,,
3274,,,,,,,
3275,,,,,,,
3276,,,,,,,
3277,,,,,,,
3278,,,,,,,
3279,,,,,,,
3280,,,,,,,
3281,,,,,,,
3282,,,,,,,
3283,,,,,,,
3284,,,,,,,
3285,,,,,,,
3286,,,,,,,
3287,,,,,,,
3288,,,,,,,
3289,,,,,,,
3290,,,,,,,
3291,,,,,,,
3292,,,,,,,
3293,,,,,,,
3294,,,,,,,
3295,,,,,,,
3296,,,,,,,
3297,,,,,,,
3298,,,,,,,
3299,,,,,,,
3300,,,,,,,
3301,,,,,,,
3302,,,,,,,
3303,,,,,,,
3304,,,,,,,
3305,,,,,,,
3306,,,,,,,
3307,,,,,,,
3308,,,,,,,
3309,,,,,,,
3310,,,,,,,
3311,,,,,,,
3312,,,,,,,
3313,,,,,,,
3314,,,,,,,
3315,,,,,,,
3316,,,,,,,
3317,,,,,,,
3318,,,,,,,
3319,,,,,,,
3320,,,,,,,
3321,,,,,,,
3322,,,,,,,
3323,,,,,,,
3324,,,,,,,
3325,,,,,,,
3326,,,,,,,
3327,,,,,,,
3328,,,,,,,
3329,,,,,,,
3330,,,,,,,
3331,,,,,,,
3332,,,,,,,
3333,,,,,,,
3334,,,,,,,
3335,,,,,,,
3336,,,,,,,
3337,,,,,,,
3338,,,,,,,
3339,,,,,,,
3340,,,,,,,
3341,,,,,,,
3342,,,,,,,
3343,,,,,,,
3344,,,,,,,
3345,,,,,,,
3346,,,,,,,
3347,,,,,,,
3348,,,,,,,
3349,,,,,,,
3350,,,,,,,
3351,,,,,,,
3352,,,,,,,
3353,,,,,,,
3354,,,,,,,
3355,,,,,,,
3356,,,,,,,
3357,,,,,,,
3358,,,,,,,
3359,,,,,,,
3360,,,,,,,
3361,,,,,,,
3362,,,,,,,
3363,,,,,,,
3364,,,,,,,
3365,,,,,,,
3366,,,,,,,
3367,,,,,,,
3368,,,,,,,
3369,,,,,,,
3370,,,,,,,
3371,,,,,,,
3372,,,,,,,
3373,,,,,,,
3374,,,,,,,
3375,,,,,,,
3376,,,,,,,
3377,,,,,,,
3378,,,,,,,
3379,,,,,,,
3380,,,,,,,
3381,,,,,,,
3382,,,,,,,
3383,,,,,,,
3384,,,,,,,
3385,,,,,,,
3386,,,,,,,
3387,,,,,,,
3388,,,,,,,
3389,,,,,,,
3390,,,,,,,
3391,,,,,,,
3392,,,,,,,
3393,,,,,,,
3394,,,,,,,
3395,,,,,,,
3396,,,,,,,
3397,,,,,,,
3398,,,,,,,
3399,,,,,,,
3400,,,,,,,
3401,,,,,,,
3402,,,,,,,
3403,,,,,,,
3404,,,,,,,
3405,,,,,,,
3406,,,,,,,
3407,,,,,,,
3408,,,,,,,
3409,,,,,,,
3410,,,,,,,
3411,,,,,,,
3412,,,,,,,
3413,,,,,,,
3414,,,,,,,
3415,,,,,,,
3416,,,,,,,
3417,,,,,,,
3418,,,,,,,
3419,,,,,,,
3420,,,,,,,
3421,,,,,,,
3422,,,,,,,
3423,,,,,,,
3424,,,,,,,
3425,,,,,,,
3426,,,,,,,
3427,,,,,,,
3428,,,,,,,
3429,,,,,,,
3430,,,,,,,
3431,,,,,,,
3432,,,,,,,
3433,,,,,,,
3434,,,,,,,
3435,,,,,,,
3436,,,,,,,
3437,,,,,,,
3438,,,,,,,
3439,,,,,,,
3440,,,,,,,
3441,,,,,,,
3442,,,,,,,
3443,,,,,,,
3444,,,,,,,
3445,,,,,,,
3446,,,,,,,
3447,,,,,,,
3448,,,,,,,
3449,,,,,,,
3450,,,,,,,
3451,,,,,,,
3452,,,,,,,
3453,,,,,,,
3454,,,,,,,
3455,,,,,,,
3456,,,,,,,
3457,,,,,,,
3458,,,,,,,
3459,,,,,,,
3460,,,,,,,
3461,,,,,,,
3462,,,,,,,
3463,,,,,,,
3464,,,,,,,
3465,,,,,,,
3466,,,,,,,
3467,,,,,,,
3468,,,,,,,
3469,,,,,,,
3470,,,,,,,
3471,,,,,,,
3472,,,,,,,
3473,,,,,,,
3474,,,,,,,
3475,,,,,,,
3476,,,,,,,
3477,,,,,,,
3478,,,,,,,
3479,,,,,,,
3480,,,,,,,
3481,,,,,,,
3482,,,,,,,
3483,,,,,,,
3484,,,,,,,
3485,,,,,,,
3486,,,,,,,
3487,,,,,,,
3488,,,,,,,
3489,,,,,,,
3490,,,,,,,
3491,,,,,,,
3492,,,,,,,
3493,,,,,,,
3494,,,,,,,
3495,,,,,,,
3496,,,,,,,
3497,,,,,,,
3498,,,,,,,
3499,,,,,,,
3500,,,,,,,
3501,,,,,,,
3502,,,,,,,
3503,,,,,,,
3504,,,,,,,
3505,,,,,,,
3506,,,,,,,
3507,,,,,,,
3508,,,,,,,
3509,,,,,,,
3510,,,,,,,
3511,,,,,,,
3512,,,,,,,
3513,,,,,,,
3514,,,,,,,
3515,,,,,,,
3516,,,,,,,
3517,,,,,,,
3518,,,,,,,
3519,,,,,,,
3520,,,,,,,
3521,,,,,,,
3522,,,,,,,
3523,,,,,,,
3524,,,,,,,
3525,,,,,,,
3526,,,,,,,
3527,,,,,,,
3528,,,,,,,
3529,,,,,,,
3530,,,,,,,
3531,,,,,,,
3532,,,,,,,
3533,,,,,,,
3534,,,,,,,
3535,,,,,,,
3536,,,,,,,
3537,,,,,,,
3538,,,,,,,
3539,,,,,,,
3540,,,,,,,
3541,,,,,,,
3542,,,,,,,
3543,,,,,,,
3544,,,,,,,
3545,,,,,,,
3546,,,,,,,
3547,,,,,,,
3548,,,,,,,
3549,,,,,,,
3550,,,,,,,
3551,,,,,,,
3552,,,,,,,
3553,,,,,,,
3554,,,,,,,
3555,,,,,,,
3556,,,,,,,
3557,,,,,,,
3558,,,,,,,
3559,,,,,,,
3560,,,,,,,
3561,,,,,,,
3562,,,,,,,
3563,,,,,,,
3564,,,,,,,
3565,,,,,,,
3566,,,,,,,
3567,,,,,,,
3568,,,,,,,
3569,,,,,,,
3570,,,,,,,
3571,,,,,,,
3572,,,,,,,
3573,,,,,,,
3574,,,,,,,
3575,,,,,,,
3576,,,,,,,
3577,,,,,,,
3578,,,,,,,
3579,,,,,,,
3580,,,,,,,
3581,,,,,,,
3582,,,,,,,
3583,,,,,,,
3584,,,,,,,
3585,,,,,,,
3586,,,,,,,
3587,,,,,,,
3588,,,,,,,
3589,,,,,,,
3590,,,,,,,
3591,,,,,,,
3592,,,,,,,
3593,,,,,,,
3594,,,,,,,
3595,,,,,,,
3596,,,,,,,
3597,,,,,,,
3598,,,,,,,
3599,,,,,,,
3600,,,,,,,
3601,,,,,,,
3602,,,,,,,
3603,,,,,,,
3604,,,,,,,
3605,,,,,,,
3606,,,,,,,
3607,,,,,,,
3608,,,,,,,
3609,,,,,,,
3610,,,,,,,
3611,,,,,,,
3612,,,,,,,
3613,,,,,,,
3614,,,,,,,
3615,,,,,,,
3616,,,,,,,
3617,,,,,,,
3618,,,,,,,
3619,,,,,,,
3620,,,,,,,
3621,,,,,,,
3622,,,,,,,
3623,,,,,,,
3624,,,,,,,
3625,,,,,,,
3626,,,,,,,
3627,,,,,,,
3628,,,,,,,
3629,,,,,,,
3630,,,,,,,
3631,,,,,,,
3632,,,,,,,
3633,,,,,,,
3634,,,,,,,
3635,,,,,,,
3636,,,,,,,
3637,,,,,,,
3638,,,,,,,
3639,,,,,,,
3640,,,,,,,
3641,,,,,,,
3642,,,,,,,
3643,,,,,,,
3644,,,,,,,
3645,,,,,,,
3646,,,,,,,
3647,,,,,,,
3648,,,,,,,
3649,,,,,,,
3650,,,,,,,
3651,,,,,,,
3652,,,,,,,
3653,,,,,,,
3654,,,,,,,
3655,,,,,,,
3656,,,,,,,
3657,,,,,,,
3658,,,,,,,
3659,,,,,,,
3660,,,,,,,
3661,,,,,,,
3662,,,,,,,
3663,,,,,,,
3664,,,,,,,
3665,,,,,,,
3666,,,,,,,
3667,,,,,,,
3668,,,,,,,
3669,,,,,,,
3670,,,,,,,
3671,,,,,,,
3672,,,,,,,
3673,,,,,,,
3674,,,,,,,
3675,,,,,,,
3676,,,,,,,
3677,,,,,,,
3678,,,,,,,
3679,,,,,,,
3680,,,,,,,
3681,,,,,,,
3682,,,,,,,
3683,,,,,,,
3684,,,,,,,
3685,,,,,,,
3686,,,,,,,
3687,,,,,,,
3688,,,,,,,
3689,,,,,,,
3690,,,,,,,
3691,,,,,,,
3692,,,,,,,
3693,,,,,,,
3694,,,,,,,
3695,,,,,,,
3696,,,,,,,
3697,,,,,,,
3698,,,,,,,
3699,,,,,,,
3700,,,,,,,
3701,,,,,,,
3702,,,,,,,
3703,,,,,,,
3704,,,,,,,
3705,,,,,,,
3706,,,,,,,
3707,,,,,,,
3708,,,,,,,
3709,,,,,,,
3710,,,,,,,
3711,,,,,,,
3712,,,,,,,
3713,,,,,,,
3714,,,,,,,
3715,,,,,,,
3716,,,,,,,
3717,,,,,,,
3718,,,,,,,
3719,,,,,,,
3720,,,,,,,
3721,,,,,,,
3722,,,,,,,
3723,,,,,,,
3724,,,,,,,
3725,,,,,,,
3726,,,,,,,
3727,,,,,,,
3728,,,,,,,
3729,,,,,,,
3730,,,,,,,
3731,,,,,,,
3732,,,,,,,
3733,,,,,,,
3734,,,,,,,
3735,,,,,,,
3736,,,,,,,
3737,,,,,,,
3738,,,,,,,
3739,,,,,,,
3740,,,,,,,
3741,,,,,,,
3742,,,,,,,
3743,,,,,,,
3744,,,,,,,
3745,,,,,,,
3746,,,,,,,
3747,,,,,,,
3748,,,,,,,
3749,,,,,,,
3750,,,,,,,
3751,,,,,,,
3752,,,,,,,
3753,,,,,,,
3754,,,,,,,
3755,,,,,,,
3756,,,,,,,
3757,,,,,,,
3758,,,,,,,
3759,,,,,,,
3760,,,,,,,
3761,,,,,,,
3762,,,,,,,
3763,,,,,,,
3764,,,,,,,
3765,,,,,,,
3766,,,,,,,
3767,,,,,,,
3768,,,,,,,
3769,,,,,,,
3770,,,,,,,
3771,,,,,,,
3772,,,,,,,
3773,,,,,,,
3774,,,,,,,
3775,,,,,,,
3776,,,,,,,
3777,,,,,,,
3778,,,,,,,
3779,,,,,,,
3780,,,,,,,
3781,,,,,,,
3782,,,,,,,
1282,,Rb3 V4 Cr4 C24 N24,0.230671815480342,Rb,V,Cr,3.0
1412,,Rb6 V4 Zn4 C24 N24,0.3166123873588731,Rb,Zn,V,6.0
1458,,Rb5 Mn4 V4 C24 N24,0.1673259342232818,Rb,V,Mn,5.0
1463,,Rb5 V4 Zn4 C24 N24,0.3558016055020481,Rb,Zn,V,5.0
1657,,Sr6 Co8 C24 N24,0.5086715167012885,Sr,Co,Co,6.0
1738,,Sr4 Cr8 C24 N24,0.338502739738221,Sr,Cr,Cr,4.0
2002,,K5 Mn4 Os4 C24 N24,0.0705222636300551,K,Mn,Os,5.0
2040,,Zn4 Fe4 C24 N24,0.4138187960078552,,Zn,Fe,0.0
2283,,Li8 Cr4 Co4 C24 N24,0.4726915873587485,Li,Co,Cr,8.0