,Composition,Formula,e_above_hull,A_atom,P_atom,R_atom,n_A
189,Na2 Mn4 Fe4 C24 N24,Na2 Mn4 Fe4 C24 N24,0.18378237789425175,Na,Mn,Fe,2.0
266,Li2 Mn4 Cr4 C24 N24,Li2 Mn4 Cr4 C24 N24,0.23488285067551476,Li,Cr,Mn,2.0
278,Li2 Zn4 Fe4 C24 N24,Li2 Zn4 Fe4 C24 N24,0.37981419575344605,Li,Zn,Fe,2.0
294,Li2 V4 Co4 C24 N24,Li2 V4 Co4 C24 N24,0.23188662739965335,Li,V,Co,2.0
304,K2 V8 C24 N24,K2 V8 C24 N24,0.36811167740574813,K,V,V,2.0
363,Mg2 Zn4 Co4 C24 N24,Mg2 Zn4 Co4 C24 N24,0.39172808685563254,Mg,Zn,Co,2.0
364,,Na2 Zn4 Cr4 C24 N24,0.40217726659287223,Na,Zn,Cr,2.0
381,,Na2 Cr8 C24 N24,0.24409039237701258,Na,Cr,Cr,2.0
405,,Li2 V8 C24 N24,0.42297585636517354,Li,V,V,2.0
412,,Ca2 Fe4 Os4 C24 N24,0.20537397259057322,Ca,Fe,Os,2.0
417,,Mg2 Cr4 Fe4 C24 N24,0.41185946970873566,Mg,Fe,Cr,2.0
439,,K2 Cr4 Co4 C24 N24,0.303536486888504,K,Co,Cr,2.0
447,,Na2 Co8 C24 N24,0.22157193582528834,Na,Co,Co,2.0
455,,Li2 V4 Os4 C24 N24,0.14806416809758183,Li,V,Os,2.0
468,,Ca2 V8 C24 N24,0.46617926103057883,Ca,V,V,2.0
478,,Sr6 V4 Os4 C24 N24,0.38509561525742164,Sr,V,Os,6.0
481,,Na6 Mn4 Co4 C24 N24,0.25556358464381557,Na,Mn,Co,6.0
486,,Ca2 Zn4 Co4 C24 N24,0.30366051817747053,Ca,Zn,Co,2.0
491,,Na6 Mn4 Fe4 C24 N24,0.20078861141801063,Na,Mn,Fe,6.0
499,,Mg6 Cr4 Os4 C24 N24,0.45134419203161436,Mg,Cr,Os,6.0
500,,,,,,,
501,,,,,,,
502,,,,,,,
504,,,,,,,
505,,,,,,,
507,,,,,,,
508,,,,,,,
509,,,,,,,
511,,,,,,,
512,,,,,,,
513,,,,,,,
514,,,,,,,
516,,,,,,,
518,,,,,,,
519,,,,,,,
520,,,,,,,
521,,,,,,,
523,,,,,,,
524,,,,,,,
525,,,,,,,
526,,,,,,,
527,,,,,,,
528,,,,,,,
529,,,,,,,
530,,,,,,,
531,,,,,,,
532,,,,,,,
534,,,,,,,
535,,,,,,,
537,,,,,,,
538,,,,,,,
540,,,,,,,
541,,,,,,,
542,,,,,,,
543,,,,,,,
545,,,,,,,
546,,,,,,,
547,,,,,,,
548,,,,,,,
549,,,,,,,
550,,,,,,,
553,,,,,,,
555,,,,,,,
557,,,,,,,
560,,,,,,,
561,,,,,,,
563,,,,,,,
564,,,,,,,
566,,,,,,,
568,,,,,,,
569,,,,,,,
570,,,,,,,
572,,,,,,,
574,,,,,,,
576,,,,,,,
577,,,,,,,
579,,,,,,,
580,,,,,,,
582,,,,,,,
583,,,,,,,
584,,,,,,,
587,,,,,,,
588,,,,,,,
589,,,,,,,
591,,,,,,,
593,,,,,,,
595,,,,,,,
596,,,,,,,
597,,,,,,,
599,,,,,,,
600,,,,,,,
601,,,,,,,
602,,,,,,,
605,,,,,,,
607,,,,,,,
611,,,,,,,
614,,,,,,,
615,,,,,,,
616,,,,,,,
620,,,,,,,
621,,,,,,,
622,,,,,,,
627,,,,,,,
628,,,,,,,
629,,,,,,,
630,,,,,,,
631,,,,,,,
632,,,,,,,
636,,,,,,,
637,,,,,,,
638,,,,,,,
641,,,,,,,
643,,,,,,,
644,,,,,,,
646,,,,,,,
649,,,,,,,
650,,,,,,,
652,,,,,,,
653,,,,,,,
655,,,,,,,
657,,,,,,,
658,,,,,,,
660,,,,,,,
661,,,,,,,
665,,,,,,,
666,,,,,,,
669,,,,,,,
670,,,,,,,
671,,,,,,,
672,,,,,,,
676,,,,,,,
677,,,,,,,
678,,,,,,,
681,,,,,,,
682,,,,,,,
683,,,,,,,
691,,,,,,,
693,,,,,,,
697,,,,,,,
698,,,,,,,
700,,,,,,,
701,,,,,,,
706,,,,,,,
709,,,,,,,
711,,,,,,,
712,,,,,,,
714,,,,,,,
716,,,,,,,
718,,,,,,,
719,,,,,,,
722,,,,,,,
724,,,,,,,
736,,,,,,,
739,,,,,,,
740,,,,,,,
742,,,,,,,
748,,,,,,,
750,,,,,,,
754,,,,,,,
765,,,,,,,
766,,,,,,,
767,,,,,,,
769,,,,,,,
770,,,,,,,
781,,,,,,,
784,,,,,,,
792,,,,,,,
796,,,,,,,