,Composition,Formula,e_above_hull,A_atom,P_atom,R_atom,n_A
2284,,Co8 C24 N24,0.20299240753428371,,Co,Co,0.0
2356,,K1 Fe4 Co4 C24 N24,0.24434583378467956,K,Co,Fe,1.0
2425,,K3 Cr4 Co4 C24 N24,0.2915881164972891,K,Co,Cr,3.0
2454,,Na1 Mn4 Co4 C24 N24,0.3116588386823409,Na,Co,Mn,1.0
2456,,Mg7 Mn8 C24 N24,0.6597474770011624,Mg,Mn,Mn,7.0
2488,,K6 Fe4 Co4 C24 N24,0.1719919845161293,K,Co,Fe,6.0
2527,,Li5 Zn4 Co4 C24 N24,0.33353425409163595,Li,Zn,Co,5.0
2570,,,,,,,
2621,,,,,,,
2629,,Ca7 V4 Zn4 C24 N24,0.5756462708796297,Ca,Zn,V,7.0
2658,,K8 Cr4 Co4 C24 N24,0.21020641535156237,K,Cr,Co,8.0
2694,,Ca5 Mn4 Co4 C24 N24,0.4879242427303847,Ca,Co,Mn,5.0