,Composition,Formula,e_above_hull,A_atom,P_atom,R_atom,n_A
1732,,Na4 V4 Fe4 C24 N24,0.3756726478968897,Na,Fe,V,4.0
1733,,Na4 Mn4 Fe4 C24 N24,0.25644961189688864,Na,Fe,Mn,4.0
1734,,,,,,,
1735,,,,,,,
1736,,,,,,,
1737,,,,,,,
1739,,,,,,,
1740,,,,,,,
1741,,,,,,,
1742,,Li4 Fe4 Os4 C24 N24,0.19072967578200384,Li,Fe,Os,4.0
1743,,,,,,,
1744,,,,,,,
1745,,,,,,,
1746,,,,,,,
1747,,,,,,,
1748,,,,,,,
1749,,K4 Fe8 C24 N24,0.17448019578578133,K,Fe,Fe,4.0
1750,,,,,,,
1751,,Na4 Cr4 Co4 C24 N24,0.3452376912302215,Na,Co,Cr,4.0
1752,,,,,,,
1753,,,,,,,
1754,,,,,,,
1755,,,,,,,
1756,,,,,,,
1757,,,,,,,
1758,,,,,,,
1759,,,,,,,
1760,,Mg4 Mn4 Co4 C24 N24,0.5519165029048887,Mg,Co,Mn,4.0
1761,,,,,,,
1762,,,,,,,
1763,,Ca4 Co4 Os4 C24 N24,0.3440221689684453,Ca,Co,Os,4.0
1764,,,,,,,
1765,,,,,,,
1766,,,,,,,
1767,,,,,,,
1768,,,,,,,
1769,,Mg4 Mn4 Fe4 C24 N24,0.5003573317382237,Mg,Fe,Mn,4.0
1770,,Mg4 Mn4 Co4 C24 N24,0.47911968257155646,Mg,Mn,Co,4.0
1771,,Sr4 Co4 Os4 C24 N24,0.23743393674622304,Sr,Co,Os,4.0
1772,,,,,,,
1773,,,,,,,
1774,,,,,,,
1775,,Mg4 V4 Zn4 C24 N24,0.7182589288135555,Mg,Zn,V,4.0
1776,,,,,,,
1777,,K4 V4 Fe4 C24 N24,0.3308357876191117,K,Fe,V,4.0
1778,,,,,,,
1779,,,,,,,
1780,,K4 Cr8 C24 N24,0.22194965128577948,K,Cr,Cr,4.0
1781,,,,,,,
1782,,,,,,,
1783,,,,,,,
1784,,,,,,,
1785,,,,,,,
1786,,Ca4 Cr4 Fe4 C24 N24,0.4674137814604453,Ca,Fe,Cr,4.0
1787,,,,,,,
1788,,,,,,,
1789,,,,,,,
1790,,,,,,,
1791,,Na4 Zn4 Os4 C24 N24,0.2541707968135567,Na,Zn,Os,4.0
1792,,K4 Mn4 Os4 C24 N24,0.06991731179377858,K,Mn,Os,4.0
1793,,,,,,,
1794,,,,,,,
1795,,,,,,,
1796,,,,,,,
1797,,,,,,,
1798,,,,,,,
1799,,Mg4 Co8 C24 N24,0.4936549547382203,Mg,Co,Co,4.0
1800,,,,,,,
1801,,,,,,,
1802,,K4 Mn4 Co4 C24 N24,0.18824456461911154,K,Mn,Co,4.0
1803,,,,,,,
1804,,,,,,,
1805,,,,,,,
1806,,,,,,,
1807,,Li4 Mn4 Zn4 C24 N24,0.3866598803493373,Li,Zn,Mn,4.0
1808,,,,,,,
1809,,,,,,,
1810,,,,,,,
1811,,,,,,,
1812,,,,,,,
1813,,,,,,,
1814,,,,,,,
1815,,Li4 V4 Fe4 C24 N24,0.2530091759406705,Li,V,Fe,4.0
1816,,,,,,,
1817,,,,,,,
1818,,,,,,,
1819,,,,,,,
1820,,,,,,,
1821,,,,,,,
1822,,,,,,,
1823,,,,,,,
1824,,,,,,,
1825,,,,,,,
1826,,,,,,,
1827,,,,,,,
1828,,,,,,,
1829,,,,,,,
1830,,,,,,,
1831,,,,,,,
1832,,,,,,,
1833,,,,,,,
1834,,,,,,,
1835,,,,,,,
1836,,,,,,,
1837,,,,,,,
1838,,,,,,,
1839,,Na4 Cr4 Fe4 C24 N24,0.278484767396888,Na,Fe,Cr,4.0
1840,,,,,,,
1841,,,,,,,
1842,,,,,,,
1843,,,,,,,
1844,,,,,,,
1845,,,,,,,
1846,,,,,,,
1847,,,,,,,
1848,,Mg4 V4 Co4 C24 N24,0.6634255392382222,Mg,Co,V,4.0
1849,,Li4 V4 Zn4 C24 N24,0.4281917430106681,Li,Zn,V,4.0
1850,,Ca4 Co8 C24 N24,0.4396880981271112,Ca,Co,Co,4.0
1851,,,,,,,
1852,,Ca4 Mn4 Zn4 C24 N24,0.4629645515357774,Ca,Zn,Mn,4.0
1853,,,,,,,
1854,,,,,,,
1855,,,,,,,
1856,,,,,,,
1857,,Mg4 V4 Cr4 C24 N24,0.546785929238224,Mg,V,Cr,4.0
1858,,Sr4 Fe4 Os4 C24 N24,0.18573861624622623,Sr,Fe,Os,4.0
1859,,Li4 Zn4 Fe4 C24 N24,0.36294746451600357,Li,Zn,Fe,4.0
1860,,K4 Zn4 Co4 C24 N24,0.18513212669444545,K,Zn,Co,4.0
1861,,,,,,,
1862,,,,,,,
1863,,,,,,,
1864,,,,,,,
1865,,Mg4 Cr4 Co4 C24 N24,0.5786179817382235,Mg,Co,Cr,4.0
1866,,,,,,,
1867,,,,,,,
1868,,,,,,,
1869,,,,,,,
1870,,,,,,,
1871,,Sr4 V4 Zn4 C24 N24,0.5238943633135582,Sr,Zn,V,4.0
1872,,,,,,,
1873,,Sr4 Fe8 C24 N24,0.2539008087382211,Sr,Fe,Fe,4.0
1874,,,,,,,
1875,,,,,,,
1876,,,,,,,
1877,,,,,,,
1878,,Ca4 Zn4 Co4 C24 N24,0.4894558835357792,Ca,Zn,Co,4.0
1879,,,,,,,
1880,,,,,,,
1881,,,,,,,
1882,,,,,,,
1883,,,,,,,
1884,,,,,,,
1885,,,,,,,
1886,,,,,,,
1887,,,,,,,
1888,,Na4 Fe4 Os4 C24 N24,0.1426157985715566,Na,Fe,Os,4.0
1889,,,,,,,
1890,,,,,,,
1891,,,,,,,
1892,,,,,,,
1893,,,,,,,
1894,,,,,,,
1895,,,,,,,
1896,,,,,,,
1897,,,,,,,
1898,,,,,,,
1899,,,,,,,
1900,,,,,,,
1901,,,,,,,
1902,,,,,,,
1903,,,,,,,
1904,,,,,,,
1905,,,,,,,
1906,,,,,,,
1907,,,,,,,
1908,,,,,,,
1909,,,,,,,
1910,,,,,,,
1911,,,,,,,
1912,,,,,,,
1913,,,,,,,
1914,,,,,,,
1915,,,,,,,
1916,,,,,,,
1917,,,,,,,
1918,,,,,,,
1919,,,,,,,
1920,,,,,,,
1921,,,,,,,
1922,,,,,,,
1923,,,,,,,
1924,,,,,,,
1925,,,,,,,
1926,,,,,,,
1927,,,,,,,
1928,,,,,,,
1929,,,,,,,
1930,,,,,,,
1931,,,,,,,
1932,,,,,,,
1933,,,,,,,
1934,,,,,,,
1935,,,,,,,
1936,,,,,,,
1937,,,,,,,
1938,,,,,,,
1939,,,,,,,
1940,,,,,,,
1941,,,,,,,
1942,,,,,,,
1943,,,,,,,
1944,,,,,,,
1945,,,,,,,
1946,,,,,,,
1947,,,,,,,
1948,,,,,,,
1949,,,,,,,
1950,,,,,,,
1951,,,,,,,
1952,,,,,,,
1953,,,,,,,
1954,,,,,,,
1955,,,,,,,
1956,,,,,,,
1957,,,,,,,
1958,,,,,,,
1959,,,,,,,
1960,,,,,,,
1961,,,,,,,
1962,,,,,,,
1963,,,,,,,
1964,,,,,,,
1965,,V4 Co4 C24 N24,0.20354269610571407,,V,Co,0.0
1966,,Fe4 Co4 C24 N24,0.2727415132485689,,Co,Fe,0.0
1967,,Na3 Mn8 C24 N24,0.22592530899728658,Na,Mn,Mn,3.0
1968,,Li3 Mn4 Fe4 C24 N24,0.2946730314883066,Li,Fe,Mn,3.0
1969,,Mg3 Mn8 C24 N24,0.4151804465881366,Mg,Mn,Mn,3.0
1970,,Cr4 Fe4 C24 N24,0.31458990574856927,,Fe,Cr,0.0
1971,,Mn4 Co4 C24 N24,0.2043272946771424,,Mn,Co,0.0
1972,,,,,,,
1973,,Cr4 Co4 C24 N24,0.12626932914142763,,Cr,Co,0.0
1974,,,,,,,
1975,,Mg3 Cr4 Fe4 C24 N24,0.3318931276050847,Mg,Cr,Fe,3.0
1976,,Mg3 Mn4 V4 C24 N24,0.4277347406559304,Mg,V,Mn,3.0
1977,,K3 Cr4 Fe4 C24 N24,0.24545659378542162,K,Fe,Cr,3.0
1978,,Na3 V4 Os4 C24 N24,0.12677519510711832,Na,V,Os,3.0
1979,,K3 Co4 Os4 C24 N24,0.1225332675223747,K,Co,Os,3.0
1980,,Mg3 Cr4 Co4 C24 N24,0.3685218374355923,Mg,Cr,Co,3.0
1981,,Ca3 Mn4 V4 C24 N24,0.48250096506271056,Ca,Mn,V,3.0
1982,,Sr3 Mn4 Cr4 C24 N24,0.2330513140457544,Sr,Cr,Mn,3.0
1983,,Sr3 Cr4 Co4 C24 N24,0.39927597370677503,Sr,Co,Cr,3.0
1984,,Mg3 Mn4 Os4 C24 N24,0.29713067490135536,Mg,Mn,Os,3.0
1985,,Ca3 Fe4 Os4 C24 N24,0.2393771501555939,Ca,Fe,Os,3.0
1986,,Sr3 Mn4 V4 C24 N24,0.41439266082542403,Sr,Mn,V,3.0
1987,,Na3 Mn4 Cr4 C24 N24,0.20784158526847207,Na,Cr,Mn,3.0
1988,,K3 Zn4 Co4 C24 N24,0.22920758860779689,K,Zn,Co,3.0
1989,,Sr3 Cr4 Fe4 C24 N24,0.342362981333892,Sr,Fe,Cr,3.0
1990,,Sr3 Mn4 Os4 C24 N24,0.16688554388440302,Sr,Mn,Os,3.0
1991,,,,,,,
1992,,Li3 V4 Cr4 C24 N24,0.3759414158950882,Li,Cr,V,3.0
1993,,,,,,,
1994,,Na3 Fe4 Co4 C24 N24,0.22797386509898132,Na,Co,Fe,3.0
1995,,Ca3 Mn4 Cr4 C24 N24,0.3890362301474575,Ca,Mn,Cr,3.0
1996,,K3 V4 Cr4 C24 N24,0.2609530893786438,K,V,Cr,3.0
1997,,Na3 V4 Fe4 C24 N24,0.38597941187864215,Na,Fe,V,3.0
1998,,K3 V4 Zn4 C24 N24,0.44372035708237245,K,Zn,V,3.0
1999,,Na3 V4 Cr4 C24 N24,0.3340751861159319,Na,Cr,V,3.0
2000,,Li5 Cr4 Fe4 C24 N24,0.3478197228699962,Li,Fe,Cr,5.0
2001,,Li3 Cr4 Fe4 C24 N24,0.04258951950790646,Li,Cr,Fe,3.0
2003,,Ca5 V4 Os4 C24 N24,0.4000108696234985,Ca,V,Os,5.0
2004,,Mg5 Fe8 C24 N24,0.5052252081948652,Mg,Fe,Fe,5.0
2005,,Mg5 Mn8 C24 N24,0.5275690663915853,Mg,Mn,Mn,5.0
2006,,Li5 Fe4 Os4 C24 N24,0.20287139943524402,Li,Fe,Os,5.0
2007,,Li5 Co8 C24 N24,0.3231892661486899,Li,Co,Co,5.0
2008,,Li5 Mn4 Co4 C24 N24,0.307143493361802,Li,Mn,Co,5.0
2009,,,,,,,
2010,,Sr5 Mn4 Co4 C24 N24,0.3994938932768344,Sr,Mn,Co,5.0
2011,,Ca5 Zn4 Co4 C24 N24,0.5789037373946453,Ca,Zn,Co,5.0
2012,,K5 V4 Cr4 C24 N24,0.23284377247464683,K,V,Cr,5.0
2013,,,,,,,
2014,,Li5 Zn4 Fe4 C24 N24,0.3531436760588491,Li,Zn,Fe,5.0
2015,,Ca5 V4 Co4 C24 N24,0.564583342402516,Ca,V,Co,5.0
2016,,Ca5 Fe4 Os4 C24 N24,0.36236549404972607,Ca,Fe,Os,5.0
2017,,Mg5 Fe4 Co4 C24 N24,0.5312192340965014,Mg,Co,Fe,5.0
2018,,,,,,,
2019,,Sr5 V4 Fe4 C24 N24,0.49263575180142105,Sr,Fe,V,5.0
2020,,,,,,,
2021,,Li5 Cr8 C24 N24,0.33647475073885325,Li,Cr,Cr,5.0
2022,,,,,,,
2023,,Ca5 V4 Zn4 C24 N24,0.6912174329684149,Ca,Zn,V,5.0
2024,,Li5 V8 C24 N24,0.4522421481159,Li,V,V,5.0
2025,,Ca5 Zn4 Cr4 C24 N24,0.5936686659192345,Ca,Zn,Cr,5.0
2026,,Na5 V4 Cr4 C24 N24,0.34295038945552214,Na,Cr,V,5.0
2027,,Na5 Fe8 C24 N24,0.21732564257027498,Na,Fe,Fe,5.0
2028,,,,,,,
2029,,,,,,,
2030,,,,,,,
2031,,,,,,,
2032,,,,,,,
2033,,K4 Mn4 Co4 C24 N24,0.2587731579524455,K,Co,Mn,4.0
2034,,,,,,,
2035,,,,,,,
2036,,,,,,,
2037,,K5 Mn4 Co4 C24 N24,0.2495022508353033,K,Co,Mn,5.0
2038,,,,,,,
2039,,,,,,,
2041,,Zn4 Cr4 C24 N24,0.4737694679721409,,Zn,Cr,0.0
2042,,,,,,,
2043,,,,,,,
2044,,,,,,,
2045,,,,,,,
2046,,,,,,,
2047,,,,,,,
2048,,,,,,,
2049,,,,,,,
2050,,,,,,,
2051,,,,,,,
2052,,,,,,,
2053,,,,,,,
2054,,,,,,,
2055,,,,,,,
2056,,,,,,,
2057,,,,,,,
2058,,,,,,,
2059,,,,,,,
2060,,,,,,,
2061,,,,,,,
2062,,,,,,,
2063,,,,,,,
2064,,,,,,,
2065,,,,,,,
2066,,,,,,,
2067,,,,,,,
2068,,,,,,,
2069,,,,,,,
2070,,,,,,,
2071,,,,,,,
2072,,,,,,,
2073,,,,,,,
2074,,,,,,,
2075,,,,,,,
2076,,,,,,,
2077,,,,,,,
2078,,,,,,,
2079,,,,,,,
2080,,,,,,,
2081,,,,,,,
2082,,,,,,,
2083,,,,,,,
2084,,,,,,,
2085,,,,,,,
2086,,,,,,,
2087,,,,,,,
2088,,,,,,,
2089,,,,,,,
2090,,,,,,,
2091,,,,,,,
2092,,,,,,,
2093,,,,,,,
2094,,,,,,,
2095,,,,,,,
2096,,,,,,,
2097,,,,,,,
2098,,,,,,,
2099,,,,,,,
2100,,,,,,,
2101,,,,,,,
2102,,,,,,,
2103,,,,,,,
2104,,,,,,,
2105,,,,,,,
2106,,,,,,,
2107,,,,,,,
2108,,,,,,,
2109,,,,,,,
2110,,,,,,,
2111,,,,,,,
2112,,,,,,,
2113,,,,,,,
2114,,,,,,,
2115,,,,,,,
2116,,,,,,,
2117,,,,,,,
2118,,,,,,,
2119,,,,,,,
2120,,,,,,,
2121,,,,,,,
2122,,,,,,,
2123,,,,,,,
2124,,,,,,,
2125,,,,,,,
2126,,,,,,,
2127,,,,,,,
2128,,,,,,,
2129,,,,,,,
2130,,,,,,,
2131,,,,,,,
2132,,,,,,,
2133,,,,,,,
2134,,,,,,,
2135,,,,,,,
2136,,,,,,,
2137,,,,,,,
2138,,,,,,,
2139,,,,,,,
2140,,,,,,,
2141,,,,,,,
2142,,,,,,,
2143,,,,,,,
2144,,,,,,,
2145,,,,,,,
2146,,,,,,,
2147,,,,,,,
2148,,,,,,,
2149,,,,,,,
2150,,,,,,,
2151,,,,,,,
2152,,,,,,,
2153,,,,,,,
2154,,,,,,,
2155,,,,,,,
2156,,,,,,,
2157,,,,,,,
2158,,,,,,,
2159,,,,,,,
2160,,,,,,,
2161,,,,,,,
2162,,,,,,,
2163,,,,,,,
2164,,,,,,,
2165,,,,,,,
2166,,,,,,,
2167,,,,,,,
2168,,,,,,,
2169,,,,,,,
2170,,,,,,,
2171,,,,,,,
2172,,,,,,,
2173,,,,,,,
2174,,,,,,,
2175,,,,,,,
2176,,,,,,,
2177,,,,,,,
2178,,,,,,,
2179,,,,,,,
2180,,,,,,,
2181,,,,,,,
2182,,,,,,,
2183,,,,,,,
2184,,,,,,,
2185,,,,,,,
2186,,,,,,,
2187,,,,,,,
2188,,,,,,,
2189,,,,,,,
2190,,,,,,,
2191,,,,,,,
2192,,,,,,,
2193,,,,,,,
2194,,,,,,,
2195,,,,,,,
2196,,,,,,,
2197,,,,,,,
2198,,,,,,,
2199,,,,,,,
2200,,,,,,,
2201,,,,,,,
2202,,,,,,,
2203,,,,,,,
2204,,,,,,,
2205,,,,,,,
2206,,,,,,,
2207,,,,,,,
2208,,,,,,,
2209,,,,,,,
2210,,,,,,,
2211,,,,,,,
2212,,,,,,,
2213,,,,,,,
2214,,,,,,,
2215,,,,,,,
2216,,,,,,,
2217,,,,,,,
2218,,,,,,,
2219,,,,,,,
2220,,,,,,,
2221,,,,,,,
2222,,,,,,,
2223,,,,,,,
2224,,,,,,,
2225,,,,,,,
2226,,,,,,,
2227,,,,,,,
2228,,,,,,,
2229,,,,,,,
2230,,,,,,,
2231,,,,,,,
2232,,,,,,,
2233,,,,,,,
2234,,,,,,,
2235,,,,,,,
2236,,,,,,,
2237,,,,,,,
2238,,,,,,,
2239,,,,,,,
2240,,,,,,,
2241,,,,,,,
2242,,,,,,,
2243,,,,,,,
2244,,,,,,,
2245,,,,,,,
2246,,,,,,,
2247,,,,,,,
2248,,,,,,,
2249,,,,,,,
2250,,,,,,,
2251,,,,,,,
2252,,,,,,,
2253,,,,,,,
2254,,,,,,,
2255,,,,,,,
2256,,,,,,,
2257,,,,,,,
2258,,,,,,,
2259,,,,,,,
2260,,,,,,,
2261,,,,,,,
2262,,,,,,,
2263,,Mg1 Fe8 C24 N24,0.30233834188619824,Mg,Fe,Fe,1.0
2264,,Li8 Mn4 V4 C24 N24,0.48681818032749913,Li,Mn,V,8.0
2265,,Mg8 Zn4 Fe4 C24 N24,0.6891726099479181,Mg,Zn,Fe,8.0
2266,,Li8 Mn4 Zn4 C24 N24,0.4271159172731265,Li,Zn,Mn,8.0
2267,,Mg8 Zn4 Cr4 C24 N24,0.8064703013151044,Mg,Zn,Cr,8.0
2268,,Na8 Mn4 Fe4 C24 N24,0.2344985387239582,Na,Fe,Mn,8.0
2269,,Mg8 Mn4 Fe4 C24 N24,0.7199076594791665,Mg,Fe,Mn,8.0
2270,,K8 V4 Co4 C24 N24,0.3321717698828133,K,Co,V,8.0
2271,,Li8 Cr4 Fe4 C24 N24,0.4172445282962487,Li,Fe,Cr,8.0
2272,,Mg8 Mn4 Os4 C24 N24,0.6122887971429174,Mg,Mn,Os,8.0
2273,,Na8 Mn4 Co4 C24 N24,0.2805337034114581,Na,Co,Mn,8.0
2274,,Li8 V4 Co4 C24 N24,0.5509568962649993,Li,Co,V,8.0
2275,,K8 Co4 Os4 C24 N24,0.1182082859895841,K,Co,Os,8.0
2276,,Ca8 Fe4 Os4 C24 N24,0.6184707384970842,Ca,Fe,Os,8.0
2277,,Na8 Fe4 Co4 C24 N24,0.24630810753906296,Na,Co,Fe,8.0
2278,,,,,,,
2279,,K8 Fe4 Co4 C24 N24,0.15118908394531339,K,Co,Fe,8.0
2280,,Ca8 Fe4 Co4 C24 N24,0.7544809442708331,Ca,Fe,Co,8.0
2281,,Na8 Cr4 Co4 C24 N24,0.3652435389453119,Na,Co,Cr,8.0
2282,,Mg8 Fe4 Co4 C24 N24,0.722099797916667,Mg,Co,Fe,8.0
2285,,Cr8 C24 N24,0.22162609235571473,,Cr,Cr,0.0
2286,,Mn4 Os4 C24 N24,0.11193782075714331,,Mn,Os,0.0
2287,,Cr4 Co4 C24 N24,0.304885496819999,,Co,Cr,0.0
2288,,V4 Os4 C24 N24,0.12582808629285758,,V,Os,0.0
2289,,,,,,,
2290,,,,,,,
2291,,,,,,,
2292,,,,,,,
2293,,V4 Cr4 C24 N24,0.30378416003428654,,V,Cr,0.0
2294,,V8 C24 N24,0.40950936985571573,,V,V,0.0
2295,,Co4 Os4 C24 N24,0.19638435432857193,,Co,Os,0.0
2296,,Co8 C24 N24,0.20299240753428371,,Co,Co,0.0
2297,,Mn4 Zn4 C24 N24,0.38325191868642694,,Zn,Mn,0.0
2298,,,,,,,
2299,,,,,,,
2300,,V4 Zn4 C24 N24,0.5493722726150008,,Zn,V,0.0
2301,,,,,,,
2302,,V4 Cr4 C24 N24,0.350258038962858,,Cr,V,0.0
2303,,,,,,,
2304,,,,,,,
2305,,,,,,,
2306,,,,,,,
2307,,Fe8 C24 N24,0.2605512161057142,,Fe,Fe,0.0
2308,,,,,,,
2309,,,,,,,
2310,,,,,,,
2311,,V4 Fe4 C24 N24,0.21375651574857102,,V,Fe,0.0
2312,,Fe4 Os4 C24 N24,0.17476088040000093,,Fe,Os,0.0
2313,,Mn8 C24 N24,0.23575015342714245,,Mn,Mn,0.0
2314,,Mn4 Fe4 C24 N24,0.19156998699856942,,Mn,Fe,0.0
2315,,Mn4 Fe4 C24 N24,0.27214206181999856,,Fe,Mn,0.0
2316,,,,,,,
2317,,,,,,,
2318,,,,,,,
2319,,Mn4 Cr4 C24 N24,0.28192780306999765,,Mn,Cr,0.0
2320,,,,,,,
2321,,Cr4 Os4 C24 N24,0.09665902004285698,,Cr,Os,0.0
2322,,V4 Co4 C24 N24,0.42857516307000054,,Co,V,0.0
2323,,,,,,,
2324,,,,,,,
2325,,,,,,,
2326,,Mn4 Cr4 C24 N24,0.21284315753428373,,Cr,Mn,0.0
2327,,,,,,,
2328,,,,,,,
2329,,,,,,,
2330,,Mn4 V4 C24 N24,0.25058627110571585,,V,Mn,0.0
2331,,K2 Zn4 Co4 C24 N24,0.2772130702422979,K,Zn,Co,2.0
2332,,Mn4 V4 C24 N24,0.36579293039143046,,Mn,V,0.0
2333,,Mg6 Cr4 Fe4 C24 N24,0.5208398842819371,Mg,Cr,Fe,6.0
2334,,,,,,,
2335,,,,,,,
2336,,,,,,,
2337,,,,,,,
2338,,,,,,,
2339,,,,,,,
2340,,,,,,,
2341,,V4 Fe4 C24 N24,0.40547995217714217,,Fe,V,0.0
2342,,,,,,,
2343,,,,,,,
2344,,,,,,,
2345,,,,,,,
2346,,,,,,,
2347,,K4 Mn4 Zn4 C24 N24,0.2871215425277791,K,Zn,Mn,4.0
2348,,Na7 Zn4 Fe4 C24 N24,0.2290927791898163,Na,Zn,Fe,7.0
2349,,Mg7 Fe4 Co4 C24 N24,0.6500275008106895,Mg,Fe,Co,7.0
2350,,K7 V4 Co4 C24 N24,0.24239719284061056,K,V,Co,7.0
2351,,Na7 V4 Co4 C24 N24,0.43420563527447165,Na,Co,V,7.0
2352,,,,,,,
2353,,Ca6 Mn4 Cr4 C24 N24,0.476678248475487,Ca,Cr,Mn,6.0
2354,,,,,,,
2355,,Li7 Mn4 Co4 C24 N24,0.39020209225920865,Li,Co,Mn,7.0
2357,,,,,,,
2358,,Mg3 V4 Fe4 C24 N24,0.39097309675762837,Mg,V,Fe,3.0
2359,,,,,,,
2360,,Ca3 Mn4 V4 C24 N24,0.3467905174355934,Ca,V,Mn,3.0
2361,,,,,,,
2362,,Zn4 Os4 C24 N24,0.34129717476642707,,Zn,Os,0.0
2363,,Mn4 Co4 C24 N24,0.31679890949857104,,Co,Mn,0.0
2364,,K1 Mn4 Os4 C24 N24,0.09533189326678304,K,Mn,Os,1.0
2365,,,,,,,
2366,,,,,,,
2367,,Na7 Mn4 Fe4 C24 N24,0.2421300042559542,Na,Fe,Mn,7.0
2368,,,,,,,
2369,,,,,,,
2370,,Ca7 Co8 C24 N24,0.6844327057842303,Ca,Co,Co,7.0
2371,,Li2 Co8 C24 N24,0.24589138550310352,Li,Co,Co,2.0
2372,,Fe4 Co4 C24 N24,0.22130895556999697,,Fe,Co,0.0
2373,,,,,,,
2374,,,,,,,
2375,,Zn4 Fe4 C24 N24,0.4138187960078552,,Zn,Fe,0.0
2376,,,,,,,
2377,,,,,,,
2378,,,,,,,
2379,,,,,,,
2380,,Ca3 V4 Fe4 C24 N24,0.31481651489322005,Ca,V,Fe,3.0
2381,,K6 Fe4 Co4 C24 N24,0.18893791354838818,K,Fe,Co,6.0
2382,,Ca2 Mn4 Fe4 C24 N24,0.24799053809953975,Ca,Mn,Fe,2.0
2383,,,,,,,
2384,,,,,,,
2385,,,,,,,
2386,,Li6 Co4 Os4 C24 N24,0.2516617094222573,Li,Co,Os,6.0
2387,,,,,,,
2388,,,,,,,
2389,,,,,,,
2390,,Zn4 Co4 C24 N24,0.38736811797214177,,Zn,Co,0.0
2391,,Mg5 V4 Cr4 C24 N24,0.5919661550801116,Mg,V,Cr,5.0
2392,,,,,,,
2393,,Na7 Cr4 Fe4 C24 N24,0.2925685650496046,Na,Fe,Cr,7.0
2394,,,,,,,
2395,,Na7 V4 Co4 C24 N24,0.3253221765443124,Na,V,Co,7.0
2396,,Li7 Zn4 Cr4 C24 N24,0.46569462264841466,Li,Zn,Cr,7.0
2397,,Mg1 Fe4 Os4 C24 N24,0.2248084211928667,Mg,Fe,Os,1.0
2398,,Na1 Zn4 Co4 C24 N24,0.34365228630549804,Na,Zn,Co,1.0
2399,,Mg7 Zn4 Fe4 C24 N24,0.6582116920370362,Mg,Zn,Fe,7.0
2400,,Li6 Fe4 Co4 C24 N24,0.31140362183387005,Li,Co,Fe,6.0
2401,,Li3 Mn4 Zn4 C24 N24,0.3816509952937288,Li,Zn,Mn,3.0
2402,,,,,,,
2403,,Ca6 Co8 C24 N24,0.6021161302496765,Ca,Co,Co,6.0
2404,,,,,,,
2405,,Li7 Mn4 Zn4 C24 N24,0.4138863824896841,Li,Zn,Mn,7.0
2406,,K5 V4 Fe4 C24 N24,0.3184522462451387,K,Fe,V,5.0
2407,,Cr4 Fe4 C24 N24,0.1827125778914258,,Cr,Fe,0.0
2408,,K3 Zn4 Fe4 C24 N24,0.2927411347094919,K,Zn,Fe,3.0
2409,,Ca7 V4 Cr4 C24 N24,0.6375843934032801,Ca,V,Cr,7.0
2410,,Na7 Mn4 Co4 C24 N24,0.2891010783829362,Na,Co,Mn,7.0
2411,,Mg2 Zn4 Cr4 C24 N24,0.5165639825452857,Mg,Zn,Cr,2.0
2412,,Mg6 Mn4 Fe4 C24 N24,0.5585411623464527,Mg,Mn,Fe,6.0
2413,,Mg6 Zn4 Fe4 C24 N24,0.6247490700000018,Mg,Zn,Fe,6.0
2414,,Mg1 Mn4 Co4 C24 N24,0.3766010062721641,Mg,Co,Mn,1.0
2415,,K1 Zn4 Os4 C24 N24,0.302741385626784,K,Zn,Os,1.0
2416,,Ca3 Cr4 Fe4 C24 N24,0.2744863594694902,Ca,Cr,Fe,3.0
2417,,K1 Zn4 Co4 C24 N24,0.3307980047411698,K,Zn,Co,1.0
2418,,,,,,,
2419,,K1 Zn4 Cr4 C24 N24,0.42384509316222285,K,Zn,Cr,1.0
2420,,Na2 Zn4 Fe4 C24 N24,0.35440710400666475,Na,Zn,Fe,2.0
2421,,K7 Co4 Os4 C24 N24,0.11789558097883823,K,Co,Os,7.0
2422,,Na3 Zn4 Co4 C24 N24,0.26658779161627066,Na,Zn,Co,3.0
2423,,Mg6 V4 Co4 C24 N24,0.7841093318625827,Mg,Co,V,6.0
2424,,Mg7 Mn4 Co4 C24 N24,0.44268753984502585,Mg,Co,Mn,7.0
2426,,K2 V4 Zn4 C24 N24,0.4737282459319534,K,Zn,V,2.0
2427,,Mg1 Zn4 Cr4 C24 N24,0.48971451705321556,Mg,Zn,Cr,1.0
2428,,Na5 Mn4 Co4 C24 N24,0.3058878097833899,Na,Co,Mn,5.0
2429,,Li1 Mn4 Fe4 C24 N24,0.1988489989570148,Li,Mn,Fe,1.0
2430,,Li3 V4 Fe4 C24 N24,0.2410067943696621,Li,V,Fe,3.0
2431,,Li5 V4 Fe4 C24 N24,0.4366068758208197,Li,Fe,V,5.0
2432,,Mg6 Fe4 Co4 C24 N24,0.5964669979916151,Mg,Co,Fe,6.0
2433,,K5 Co4 Os4 C24 N24,0.10642107248251342,K,Co,Os,5.0
2434,,Li1 V4 Co4 C24 N24,0.43264622334298153,Li,Co,V,1.0
2435,,Mg1 V4 Fe4 C24 N24,0.2727404296054967,Mg,V,Fe,1.0
2436,,,,,,,
2437,,K7 Fe4 Co4 C24 N24,0.2000987180787046,K,Fe,Co,7.0
2438,,Ca3 Mn4 Co4 C24 N24,0.39763847777457606,Ca,Co,Mn,3.0
2439,,,,,,,
2440,,,,,,,
2441,,Ca2 Co8 C24 N24,0.2686349941340218,Ca,Co,Co,2.0
2442,,Li7 V4 Co4 C24 N24,0.5294887916242859,Li,Co,V,7.0
2443,,Ca1 Cr4 Co4 C24 N24,0.3632892407166075,Ca,Co,Cr,1.0
2444,,,,,,,
2445,,Ca3 Mn4 Fe4 C24 N24,0.2966169647237269,Ca,Mn,Fe,3.0
2446,,,,,,,
2447,,,,,,,
2448,,,,,,,
2449,,Na1 Fe4 Co4 C24 N24,0.25629921552444657,Na,Co,Fe,1.0
2450,,Ca2 Zn4 Fe4 C24 N24,0.3778537624878151,Ca,Zn,Fe,2.0
2451,,Na3 V4 Fe4 C24 N24,0.20380696289559097,Na,V,Fe,3.0
2452,,,,,,,
2453,,,,,,,
2455,,,,,,,
2457,,Mg7 V4 Os4 C24 N24,0.5623002230405296,Mg,V,Os,7.0
2458,,Ca3 Cr4 Co4 C24 N24,0.35608448489321987,Ca,Cr,Co,3.0
2459,,Li3 Mn4 Fe4 C24 N24,0.22268042962389956,Li,Mn,Fe,3.0
2460,,Li7 V4 Cr4 C24 N24,0.39907339194174796,Li,V,Cr,7.0
2461,,Na1 V4 Co4 C24 N24,0.42037222289286547,Na,Co,V,1.0
2462,,K6 V4 Co4 C24 N24,0.3602740750000013,K,Co,V,6.0
2463,,K7 Fe4 Co4 C24 N24,0.16571494855489544,K,Co,Fe,7.0
2464,,,,,,,
2465,,Ca2 V4 Fe4 C24 N24,0.26743683447885047,Ca,V,Fe,2.0
2466,,Li7 Zn4 Fe4 C24 N24,0.34994448518809573,Li,Zn,Fe,7.0
2467,,,,,,,
2468,,Li4 Fe8 C24 N24,0.26172689594066867,Li,Fe,Fe,4.0
2469,,,,,,,
2470,,,,,,,
2471,,Na1 Cr4 Fe4 C24 N24,0.3015453892086555,Na,Fe,Cr,1.0
2472,,K1 Zn4 Fe4 C24 N24,0.3696662015832741,K,Zn,Fe,1.0
2473,,Ca4 V4 Co4 C24 N24,0.5886388479604463,Ca,Co,V,4.0
2474,,Li7 Cr4 Fe4 C24 N24,0.3942802801957157,Li,Fe,Cr,7.0
2475,,,,,,,
2476,,,,,,,
2477,,Mg3 Zn4 Fe4 C24 N24,0.5022226715800011,Mg,Zn,Fe,3.0
2478,,,,,,,
2479,,,,,,,
2480,,Li6 Cr4 Co4 C24 N24,0.42731230941451415,Li,Co,Cr,6.0
2481,,Mg1 Zn4 Co4 C24 N24,0.3856288209128653,Mg,Zn,Co,1.0
2482,,,,,,,
2483,,K5 V4 Co4 C24 N24,0.3650507106713681,K,Co,V,5.0
2484,,Na6 V4 Co4 C24 N24,0.299968129596774,Na,V,Co,6.0
2485,,,,,,,
2486,,,,,,,
2487,,Na7 Co4 Os4 C24 N24,0.13922584722222098,Na,Co,Os,7.0
2489,,,,,,,
2490,,,,,,,
2491,,Li1 Mn4 Fe4 C24 N24,0.2758725649219276,Li,Fe,Mn,1.0
2492,,,,,,,
2493,,Na2 Cr4 Co4 C24 N24,0.3236983849632171,Na,Co,Cr,2.0
2494,,Ca1 Mn4 Cr4 C24 N24,0.3144999135236244,Ca,Mn,Cr,1.0
2495,,,,,,,
2496,,,,,,,
2497,,,,,,,
2498,,,,,,,
2499,,,,,,,
2500,,,,,,,
2501,,Ca7 V4 Co4 C24 N24,0.7869323737207408,Ca,Co,V,7.0
2502,,Li1 Cr4 Co4 C24 N24,0.3266881950973666,Li,Co,Cr,1.0
2503,,Mg7 Cr4 Fe4 C24 N24,0.7141230658900533,Mg,Fe,Cr,7.0
2504,,Na5 Fe4 Co4 C24 N24,0.23008529781617515,Na,Co,Fe,5.0
2505,,,,,,,
2506,,,,,,,
2507,,,,,,,
2508,,Ca5 Fe4 Co4 C24 N24,0.4583467009271045,Ca,Co,Fe,5.0
2509,,K7 Mn4 Co4 C24 N24,0.2046307520469588,K,Co,Mn,7.0
2510,,Li1 Zn4 Fe4 C24 N24,0.3956154421942095,Li,Zn,Fe,1.0
2511,,Mg5 Mn4 Co4 C24 N24,0.5413895352440443,Mg,Mn,Co,5.0
2512,,Mg1 V4 Co4 C24 N24,0.484686961184444,Mg,Co,V,1.0
2513,,,,,,,
2514,,Ca1 V4 Cr4 C24 N24,0.350198655102572,Ca,V,Cr,1.0
2515,,Li7 V4 Co4 C24 N24,0.4199184419417463,Li,V,Co,7.0
2516,,,,,,,
2517,,,,,,,
2518,,K7 Mn4 Cr4 C24 N24,0.19075465584325535,K,Mn,Cr,7.0
2519,,,,,,,