,Composition,Formula,e_above_hull,A_atom,P_atom,R_atom,n_A
801,Mg6 Ni4 Os4 C24 N24,Mg6 Ni4 Os4 C24 N24,0.03918191000000015,Mg,Ni,Os,6.0
811,Mg4 Zn4 Co4 C24 N24,Mg4 Zn4 Co4 C24 N24,0.03918191000000015,Mg,Zn,Co,4.0
813,Sr6 Fe4 Co4 C24 N24,Sr6 Fe4 Co4 C24 N24,0.005491380000000046,Sr,Fe,Co,6.0
816,Na6 Mn4 Cr4 C24 N24,Na6 Mn4 Cr4 C24 N24,0.12850119249999992,Na,Cr,Mn,6.0
819,Na4 V4 Os4 C24 N24,Na4 V4 Os4 C24 N24,0.12850119249999992,Na,V,Os,4.0
820,Sr6 Zn4 Co4 C24 N24,Sr6 Zn4 Co4 C24 N24,0.005491380000000046,Sr,Zn,Co,6.0
821,Mg4 Mn4 Os4 C24 N24,Mg4 Mn4 Os4 C24 N24,0.03918191000000015,Mg,Mn,Os,4.0
822,Sr4 Fe4 Ni4 C24 N24,Sr4 Fe4 Ni4 C24 N24,0.005491380000000046,Sr,Ni,Fe,4.0
824,Na4 Mn4 Cr4 C24 N24,Na4 Mn4 Cr4 C24 N24,0.12850119249999992,Na,Mn,Cr,4.0
825,Ca6 Mn4 Zn4 C24 N24,Ca6 Mn4 Zn4 C24 N24,0.4185173499999999,Ca,Zn,Mn,6.0
826,Sr6 Mn4 Zn4 C24 N24,Sr6 Mn4 Zn4 C24 N24,0.005491380000000046,Sr,Zn,Mn,6.0
827,Ca6 Cr4 Fe4 C24 N24,Ca6 Cr4 Fe4 C24 N24,0.4185173499999999,Ca,Cr,Fe,6.0
831,K6 Mn4 Ni4 C24 N24,K6 Mn4 Ni4 C24 N24,0.11553698000000001,K,Ni,Mn,6.0
832,Li6 Cr4 Co4 C24 N24,Li6 Cr4 Co4 C24 N24,0.0028601699999999397,Li,Cr,Co,6.0
834,Li4 In4 Fe4 C24 N24,Li4 In4 Fe4 C24 N24,0.0028601699999999397,Li,In,Fe,4.0
835,Sr4 V4 Os4 C24 N24,Sr4 V4 Os4 C24 N24,0.005491380000000046,Sr,V,Os,4.0
837,Li4 Zn4 Os4 C24 N24,Li4 Zn4 Os4 C24 N24,0.0028601699999999397,Li,Zn,Os,4.0
838,Mg4 Mn8 C24 N24,Mg4 Mn8 C24 N24,0.03918191000000015,Mg,Mn,Mn,4.0
840,Li4 Mn4 Co4 C24 N24,Li4 Mn4 Co4 C24 N24,0.0028601699999999397,Li,Mn,Co,4.0
841,Ca6 Mn4 V4 C24 N24,Ca6 Mn4 V4 C24 N24,0.4185173499999999,Ca,Mn,V,6.0
843,Mg4 Fe8 C24 N24,Mg4 Fe8 C24 N24,0.03918191000000015,Mg,Fe,Fe,4.0
844,Li4 V4 Cr4 C24 N24,Li4 V4 Cr4 C24 N24,0.0028601699999999397,Li,Cr,V,4.0
846,Sr4 V4 Fe4 C24 N24,Sr4 V4 Fe4 C24 N24,0.005491380000000046,Sr,Fe,V,4.0
847,Mg6 Mn4 In4 C24 N24,Mg6 Mn4 In4 C24 N24,0.03918191000000015,Mg,In,Mn,6.0
849,Na4 Cr4 Co4 C24 N24,Na4 Cr4 Co4 C24 N24,0.12850119249999992,Na,Cr,Co,4.0
852,Ca4 V4 Cr4 C24 N24,Ca4 V4 Cr4 C24 N24,0.4185173499999999,Ca,V,Cr,4.0
853,K4 Zn4 Cr4 C24 N24,K4 Zn4 Cr4 C24 N24,0.11553698000000001,K,Zn,Cr,4.0
854,K4 Fe4 Co4 C24 N24,K4 Fe4 Co4 C24 N24,0.11553698000000001,K,Fe,Co,4.0
857,Ca4 Fe4 Ni4 C24 N24,Ca4 Fe4 Ni4 C24 N24,0.3820230045768902,Ca,Ni,Fe,4.0
859,Li4 Mn4 Ni4 C24 N24,Li4 Mn4 Ni4 C24 N24,0.0028601699999999397,Li,Ni,Mn,4.0
860,Ca4 V4 Cr4 C24 N24,Ca4 V4 Cr4 C24 N24,0.4185173499999999,Ca,Cr,V,4.0
861,Ca4 Fe8 C24 N24,Ca4 Fe8 C24 N24,0.4185173499999999,Ca,Fe,Fe,4.0
862,Ca4 Cr4 Os4 C24 N24,Ca4 Cr4 Os4 C24 N24,0.2876697955240015,Ca,Cr,Os,4.0
866,Li4 Zn4 Cr4 C24 N24,Li4 Zn4 Cr4 C24 N24,0.0028601699999999397,Li,Zn,Cr,4.0
867,Ca4 Cr8 C24 N24,Ca4 Cr8 C24 N24,0.4185173499999999,Ca,Cr,Cr,4.0
868,Li4 V8 C24 N24,Li4 V8 C24 N24,0.0028601699999999397,Li,V,V,4.0
870,Li4 Co4 Cu4 C24 N24,Li4 Co4 Cu4 C24 N24,0.0028601699999999397,Li,Cu,Co,4.0
872,Na4 V4 Co4 C24 N24,Na4 V4 Co4 C24 N24,0.12850119249999992,Na,Co,V,4.0
873,Na4 In4 Os4 C24 N24,Na4 In4 Os4 C24 N24,0.12468860513889002,Na,In,Os,4.0
875,Mg4 Mn4 Zn4 C24 N24,Mg4 Mn4 Zn4 C24 N24,0.03918191000000015,Mg,Zn,Mn,4.0
876,Mg4 Cr4 Ni4 C24 N24,Mg4 Cr4 Ni4 C24 N24,0.03918191000000015,Mg,Ni,Cr,4.0
877,K4 V4 Ni4 C24 N24,K4 V4 Ni4 C24 N24,0.11553698000000001,K,Ni,V,4.0
878,Na4 Cr8 C24 N24,Na4 Cr8 C24 N24,0.12850119249999992,Na,Cr,Cr,4.0
882,K4 Mn8 C24 N24,K4 Mn8 C24 N24,0.11553698000000001,K,Mn,Mn,4.0
884,Mg4 Mn4 Cr4 C24 N24,Mg4 Mn4 Cr4 C24 N24,0.03918191000000015,Mg,Cr,Mn,4.0
886,Li4 Mn4 Cr4 C24 N24,Li4 Mn4 Cr4 C24 N24,0.0028601699999999397,Li,Cr,Mn,4.0
887,Mg4 Mn4 Cr4 C24 N24,Mg4 Mn4 Cr4 C24 N24,0.03918191000000015,Mg,Mn,Cr,4.0
888,Mg4 V8 C24 N24,Mg4 V8 C24 N24,0.03918191000000015,Mg,V,V,4.0
889,K4 Cu4 Os4 C24 N24,K4 Cu4 Os4 C24 N24,0.11553698000000001,K,Cu,Os,4.0
890,Li4 Cr4 Fe4 C24 N24,Li4 Cr4 Fe4 C24 N24,0.0028601699999999397,Li,Cr,Fe,4.0
893,Sr4 Cr4 Ni4 C24 N24,Sr4 Cr4 Ni4 C24 N24,0.005491380000000046,Sr,Ni,Cr,4.0
895,Li4 V4 Ni4 C24 N24,Li4 V4 Ni4 C24 N24,0.0028601699999999397,Li,Ni,V,4.0
897,Li4 Cr4 In4 C24 N24,Li4 Cr4 In4 C24 N24,0.0028601699999999397,Li,In,Cr,4.0
901,Na4 Fe8 C24 N24,Na4 Fe8 C24 N24,0.12850119249999992,Na,Fe,Fe,4.0
905,K4 V4 Cr4 C24 N24,K4 V4 Cr4 C24 N24,0.11553698000000001,K,V,Cr,4.0
907,Na4 Zn4 Cr4 C24 N24,Na4 Zn4 Cr4 C24 N24,0.12850119249999992,Na,Zn,Cr,4.0
908,Na4 Zn4 Fe4 C24 N24,Na4 Zn4 Fe4 C24 N24,0.12850119249999992,Na,Zn,Fe,4.0
911,Mg4 Fe4 Co4 C24 N24,Mg4 Fe4 Co4 C24 N24,0.03918191000000015,Mg,Co,Fe,4.0
913,Ca4 Mn4 Cr4 C24 N24,Ca4 Mn4 Cr4 C24 N24,0.33656264901600075,Ca,Cr,Mn,4.0
915,Sr4 Mn8 C24 N24,Sr4 Mn8 C24 N24,0.005491380000000046,Sr,Mn,Mn,4.0
916,Li4 Zn4 Co4 C24 N24,Li4 Zn4 Co4 C24 N24,0.0028601699999999397,Li,Zn,Co,4.0
917,Ca4 V4 Fe4 C24 N24,Ca4 V4 Fe4 C24 N24,0.4185173499999999,Ca,V,Fe,4.0
919,Ca4 Mn4 Cr4 C24 N24,Ca4 Mn4 Cr4 C24 N24,0.4185173499999999,Ca,Mn,Cr,4.0
920,Sr4 V4 Cr4 C24 N24,Sr4 V4 Cr4 C24 N24,0.005491380000000046,Sr,V,Cr,4.0
922,Mg4 Cr8 C24 N24,Mg4 Cr8 C24 N24,0.03918191000000015,Mg,Cr,Cr,4.0
924,K4 V4 Cr4 C24 N24,K4 V4 Cr4 C24 N24,0.11553698000000001,K,Cr,V,4.0
927,Mg4 Cr4 Fe4 C24 N24,Mg4 Cr4 Fe4 C24 N24,0.03918191000000015,Mg,Cr,Fe,4.0
928,Li4 Mn4 Os4 C24 N24,Li4 Mn4 Os4 C24 N24,0.0028601699999999397,Li,Mn,Os,4.0
929,Li4 Fe4 Co4 C24 N24,Li4 Fe4 Co4 C24 N24,0.0028601699999999397,Li,Fe,Co,4.0
931,Ca4 Cr4 Fe4 C24 N24,Ca4 Cr4 Fe4 C24 N24,0.4185173499999999,Ca,Cr,Fe,4.0
932,Sr4 Zn4 Os4 C24 N24,Sr4 Zn4 Os4 C24 N24,0.005491380000000046,Sr,Zn,Os,4.0
939,Li4 Cr4 Os4 C24 N24,Li4 Cr4 Os4 C24 N24,0.0028601699999999397,Li,Cr,Os,4.0
942,K4 Zn4 Os4 C24 N24,K4 Zn4 Os4 C24 N24,0.11553698000000001,K,Zn,Os,4.0
943,Sr4 Cr4 Os4 C24 N24,Sr4 Cr4 Os4 C24 N24,0.005491380000000046,Sr,Cr,Os,4.0
946,Ca4 Cr4 Co4 C24 N24,Ca4 Cr4 Co4 C24 N24,0.4185173499999999,Ca,Cr,Co,4.0
952,Na4 V4 Co4 C24 N24,Na4 V4 Co4 C24 N24,0.12850119249999992,Na,V,Co,4.0
953,K4 Mn4 In4 C24 N24,K4 Mn4 In4 C24 N24,0.11553698000000001,K,In,Mn,4.0
955,Li4 Mn4 In4 C24 N24,Li4 Mn4 In4 C24 N24,0.0028601699999999397,Li,In,Mn,4.0
962,Ca4 Fe4 Os4 C24 N24,Ca4 Fe4 Os4 C24 N24,0.4185173499999999,Ca,Fe,Os,4.0
967,Mg4 Mn4 In4 C24 N24,Mg4 Mn4 In4 C24 N24,0.03918191000000015,Mg,In,Mn,4.0
968,Mg4 V4 Fe4 C24 N24,Mg4 V4 Fe4 C24 N24,0.03918191000000015,Mg,Fe,V,4.0
969,Na4 Mn4 Co4 C24 N24,Na4 Mn4 Co4 C24 N24,0.12850119249999992,Na,Mn,Co,4.0
973,Li4 V4 Co4 C24 N24,Li4 V4 Co4 C24 N24,0.0028601699999999397,Li,V,Co,4.0
975,Sr4 Cr4 Cu4 C24 N24,Sr4 Cr4 Cu4 C24 N24,0.005491380000000046,Sr,Cu,Cr,4.0
976,Sr4 Co4 Cu4 C24 N24,Sr4 Co4 Cu4 C24 N24,0.005491380000000046,Sr,Cu,Co,4.0
980,K4 Mn4 Cr4 C24 N24,K4 Mn4 Cr4 C24 N24,0.11553698000000001,K,Cr,Mn,4.0
981,Ca4 V4 Zn4 C24 N24,Ca4 V4 Zn4 C24 N24,0.4185173499999999,Ca,Zn,V,4.0
983,Na4 Co4 Cu4 C24 N24,Na4 Co4 Cu4 C24 N24,0.12850119249999992,Na,Cu,Co,4.0
987,Na4 Mn4 V4 C24 N24,Na4 Mn4 V4 C24 N24,0.12850119249999992,Na,V,Mn,4.0
989,Na4 Mn4 Cr4 C24 N24,Na4 Mn4 Cr4 C24 N24,0.12850119249999992,Na,Cr,Mn,4.0
990,K4 V8 C24 N24,K4 V8 C24 N24,0.11553698000000001,K,V,V,4.0
991,Li4 Mn4 Fe4 C24 N24,Li4 Mn4 Fe4 C24 N24,0.0028601699999999397,Li,Mn,Fe,4.0
1000,Ca4 Mn4 Fe4 C24 N24,Ca4 Mn4 Fe4 C24 N24,0.4185173499999999,Ca,Mn,Fe,4.0
1006,Mg4 V4 Os4 C24 N24,Mg4 V4 Os4 C24 N24,0.03918191000000015,Mg,V,Os,4.0
1009,Li4 In4 Os4 C24 N24,Li4 In4 Os4 C24 N24,0.0028601699999999397,Li,In,Os,4.0
1014,K4 Cr4 Co4 C24 N24,K4 Cr4 Co4 C24 N24,0.11553698000000001,K,Cr,Co,4.0
1020,Na4 Zn4 Co4 C24 N24,Na4 Zn4 Co4 C24 N24,0.12850119249999992,Na,Zn,Co,4.0
1022,Na4 Fe4 Co4 C24 N24,Na4 Fe4 Co4 C24 N24,0.12850119249999992,Na,Co,Fe,4.0
1024,Sr4 Mn4 Fe4 C24 N24,Sr4 Mn4 Fe4 C24 N24,0.005491380000000046,Sr,Fe,Mn,4.0
1025,Sr4 Cr4 Co4 C24 N24,Sr4 Cr4 Co4 C24 N24,0.005491380000000046,Sr,Cr,Co,4.0
1027,Sr4 Co8 C24 N24,Sr4 Co8 C24 N24,0.00549138000000049,Sr,Co,Co,4.0
1028,Sr4 Mn4 Ni4 C24 N24,Sr4 Mn4 Ni4 C24 N24,0.005491380000000046,Sr,Ni,Mn,4.0
1030,Mg4 Ni4 Os4 C24 N24,Mg4 Ni4 Os4 C24 N24,0.03918191000000015,Mg,Ni,Os,4.0
1033,Na4 Mn8 C24 N24,Na4 Mn8 C24 N24,0.12850119249999992,Na,Mn,Mn,4.0
1035,Li4 V4 Cr4 C24 N24,Li4 V4 Cr4 C24 N24,0.0028601699999999397,Li,V,Cr,4.0
1036,Rb8 V4 Os4 C24 N24,Rb8 V4 Os4 C24 N24,0.00487891000000007,Rb,V,Os,8.0
1037,Sr4 Mn4 Os4 C24 N24,Sr4 Mn4 Os4 C24 N24,0.005491380000000046,Sr,Mn,Os,4.0
1040,Rb8 Fe4 Os4 C24 N24,Rb8 Fe4 Os4 C24 N24,0.00487891000000007,Rb,Fe,Os,8.0
1044,Sr4 Mn4 In4 C24 N24,Sr4 Mn4 In4 C24 N24,0.005491380000000046,Sr,In,Mn,4.0
1045,Rb8 Ni4 Os4 C24 N24,Rb8 Ni4 Os4 C24 N24,0.00487891000000007,Rb,Ni,Os,8.0
1048,Rb8 V4 Ni4 C24 N24,Rb8 V4 Ni4 C24 N24,0.00487891000000007,Rb,Ni,V,8.0
1049,Na4 Mn4 Co4 C24 N24,Na4 Mn4 Co4 C24 N24,0.12850119249999992,Na,Co,Mn,4.0
1050,Rb8 Zn4 Os4 C24 N24,Rb8 Zn4 Os4 C24 N24,0.00487891000000007,Rb,Zn,Os,8.0
1051,Rb8 Zn4 Co4 C24 N24,Rb8 Zn4 Co4 C24 N24,0.00487891000000007,Rb,Zn,Co,8.0
1052,Rb8 Cr4 Fe4 C24 N24,Rb8 Cr4 Fe4 C24 N24,0.00487891000000007,Rb,Fe,Cr,8.0
1053,Rb8 Mn4 Co4 C24 N24,Rb8 Mn4 Co4 C24 N24,0.00487891000000007,Rb,Mn,Co,8.0
1055,Rb8 Zn4 Fe4 C24 N24,Rb8 Zn4 Fe4 C24 N24,0.00487891000000007,Rb,Zn,Fe,8.0
1056,Rb8 V4 Zn4 C24 N24,Rb8 V4 Zn4 C24 N24,0.00487891000000007,Rb,Zn,V,8.0
1057,Rb8 Cr4 Os4 C24 N24,Rb8 Cr4 Os4 C24 N24,0.00487891000000007,Rb,Cr,Os,8.0
1058,Rb8 V4 Fe4 C24 N24,Rb8 V4 Fe4 C24 N24,0.00487891000000007,Rb,Fe,V,8.0
1059,Rb8 Mn4 Cr4 C24 N24,Rb8 Mn4 Cr4 C24 N24,0.00487891000000007,Rb,Mn,Cr,8.0
1060,Rb8 Mn4 Os4 C24 N24,Rb8 Mn4 Os4 C24 N24,0.00487891000000007,Rb,Mn,Os,8.0
1061,Rb8 Mn4 Cr4 C24 N24,Rb8 Mn4 Cr4 C24 N24,0.00487891000000007,Rb,Cr,Mn,8.0
1062,Rb8 V4 Cr4 C24 N24,Rb8 V4 Cr4 C24 N24,0.00487891000000007,Rb,V,Cr,8.0
1063,Rb8 Mn8 C24 N24,Rb8 Mn8 C24 N24,0.00487891000000007,Rb,Mn,Mn,8.0
1064,Rb8 Fe4 Ni4 C24 N24,Rb8 Fe4 Ni4 C24 N24,0.00487891000000007,Rb,Ni,Fe,8.0
1065,Rb8 Fe8 C24 N24,Rb8 Fe8 C24 N24,0.00487891000000007,Rb,Fe,Fe,8.0
1066,Rb1 Mn4 Os4 C24 N24,Rb1 Mn4 Os4 C24 N24,0.00487891000000007,Rb,Mn,Os,1.0
1067,Rb1 Co4 Cu4 C24 N24,Rb1 Co4 Cu4 C24 N24,0.00487891000000007,Rb,Cu,Co,1.0
1068,Rb8 Mn4 V4 C24 N24,Rb8 Mn4 V4 C24 N24,0.00487891000000007,Rb,Mn,V,8.0
1069,Rb1 Mn4 Cr4 C24 N24,Rb1 Mn4 Cr4 C24 N24,0.00487891000000007,Rb,Cr,Mn,1.0
1070,Rb1 Mn4 Fe4 C24 N24,Rb1 Mn4 Fe4 C24 N24,0.00487891000000007,Rb,Fe,Mn,1.0
1071,Rb8 Cr8 C24 N24,Rb8 Cr8 C24 N24,0.00487891000000007,Rb,Cr,Cr,8.0
1072,Rb8 Fe4 Co4 C24 N24,Rb8 Fe4 Co4 C24 N24,0.00487891000000007,Rb,Fe,Co,8.0
1073,Rb1 Co4 Os4 C24 N24,Rb1 Co4 Os4 C24 N24,0.00487891000000007,Rb,Co,Os,1.0
1074,Rb1 Zn4 Os4 C24 N24,Rb1 Zn4 Os4 C24 N24,0.00487891000000007,Rb,Zn,Os,1.0
1075,Rb1 V4 Os4 C24 N24,Rb1 V4 Os4 C24 N24,0.00487891000000007,Rb,V,Os,1.0
1076,Rb8 V4 Cr4 C24 N24,Rb8 V4 Cr4 C24 N24,0.00487891000000007,Rb,Cr,V,8.0
1077,Rb8 V4 Co4 C24 N24,Rb8 V4 Co4 C24 N24,0.00487891000000007,Rb,V,Co,8.0
1078,Rb8 Cr4 Co4 C24 N24,Rb8 Cr4 Co4 C24 N24,0.00487891000000007,Rb,Co,Cr,8.0
1079,Rb1 V4 Co4 C24 N24,Rb1 V4 Co4 C24 N24,0.00487891000000007,Rb,Co,V,1.0
1080,Rb8 V4 Co4 C24 N24,Rb8 V4 Co4 C24 N24,0.00487891000000007,Rb,Co,V,8.0
1081,Rb1 Cr4 Os4 C24 N24,Rb1 Cr4 Os4 C24 N24,0.00487891000000007,Rb,Cr,Os,1.0
1082,Rb1 Mn4 Zn4 C24 N24,Rb1 Mn4 Zn4 C24 N24,0.00487891000000007,Rb,Zn,Mn,1.0
1083,Rb8 Fe4 Cu4 C24 N24,Rb8 Fe4 Cu4 C24 N24,0.00487891000000007,Rb,Cu,Fe,8.0
1084,Rb8 Mn4 Fe4 C24 N24,Rb8 Mn4 Fe4 C24 N24,0.00487891000000007,Rb,Mn,Fe,8.0
1085,Rb8 Fe4 Co4 C24 N24,Rb8 Fe4 Co4 C24 N24,0.00487891000000007,Rb,Co,Fe,8.0
1086,Rb8 Cu4 Os4 C24 N24,Rb8 Cu4 Os4 C24 N24,0.00487891000000007,Rb,Cu,Os,8.0
1087,Rb8 V8 C24 N24,Rb8 V8 C24 N24,0.00487891000000007,Rb,V,V,8.0
1088,Rb8 Co8 C24 N24,Rb8 Co8 C24 N24,0.00487891000000007,Rb,Co,Co,8.0
1089,Rb8 Co4 Ni4 C24 N24,Rb8 Co4 Ni4 C24 N24,0.00487891000000007,Rb,Ni,Co,8.0
1090,Rb1 Cr4 Co4 C24 N24,Rb1 Cr4 Co4 C24 N24,0.00487891000000007,Rb,Cr,Co,1.0
1091,Rb8 Zn4 Cr4 C24 N24,Rb8 Zn4 Cr4 C24 N24,0.00487891000000007,Rb,Zn,Cr,8.0
1092,Rb1 Mn8 C24 N24,Rb1 Mn8 C24 N24,0.00487891000000007,Rb,Mn,Mn,1.0
1093,Rb7 Zn4 Os4 C24 N24,Rb7 Zn4 Os4 C24 N24,0.00487891000000007,Rb,Zn,Os,7.0
1094,Rb1 Mn4 V4 C24 N24,Rb1 Mn4 V4 C24 N24,0.00487891000000007,Rb,Mn,V,1.0
1095,Rb1 V4 Cr4 C24 N24,Rb1 V4 Cr4 C24 N24,0.00487891000000007,Rb,V,Cr,1.0
1096,Rb1 Fe8 C24 N24,Rb1 Fe8 C24 N24,0.00487891000000007,Rb,Fe,Fe,1.0
1097,Rb1 Cr8 C24 N24,Rb1 Cr8 C24 N24,0.00487891000000007,Rb,Cr,Cr,1.0
1098,Rb8 Cr4 Co4 C24 N24,Rb8 Cr4 Co4 C24 N24,0.00487891000000007,Rb,Cr,Co,8.0
1099,Rb7 Cr8 C24 N24,Rb7 Cr8 C24 N24,0.00487891000000007,Rb,Cr,Cr,7.0
1100,Rb1 Fe4 Os4 C24 N24,Rb1 Fe4 Os4 C24 N24,0.00487891000000007,Rb,Fe,Os,1.0
1101,Rb7 Cr4 Os4 C24 N24,Rb7 Cr4 Os4 C24 N24,0.00487891000000007,Rb,Cr,Os,7.0
1102,Rb7 V4 Fe4 C24 N24,Rb7 V4 Fe4 C24 N24,0.00487891000000007,Rb,V,Fe,7.0
1103,Rb1 V4 Zn4 C24 N24,Rb1 V4 Zn4 C24 N24,0.00487891000000007,Rb,Zn,V,1.0
1104,Rb7 Fe4 Os4 C24 N24,Rb7 Fe4 Os4 C24 N24,0.00487891000000007,Rb,Fe,Os,7.0
1105,Rb1 V8 C24 N24,Rb1 V8 C24 N24,0.00487891000000007,Rb,V,V,1.0
1106,Rb1 Zn4 Co4 C24 N24,Rb1 Zn4 Co4 C24 N24,0.00487891000000007,Rb,Zn,Co,1.0
1107,Rb1 V4 Co4 C24 N24,Rb1 V4 Co4 C24 N24,0.00487891000000007,Rb,V,Co,1.0
1108,Rb1 Mn4 V4 C24 N24,Rb1 Mn4 V4 C24 N24,0.00487891000000007,Rb,V,Mn,1.0
1109,Rb1 Mn4 Co4 C24 N24,Rb1 Mn4 Co4 C24 N24,0.00487891000000007,Rb,Mn,Co,1.0
1110,Rb1 Cr4 Co4 C24 N24,Rb1 Cr4 Co4 C24 N24,0.00487891000000007,Rb,Co,Cr,1.0
1111,Rb7 Mn4 Os4 C24 N24,Rb7 Mn4 Os4 C24 N24,0.00487891000000007,Rb,Mn,Os,7.0
1112,Rb1 V4 Fe4 C24 N24,Rb1 V4 Fe4 C24 N24,0.00487891000000007,Rb,Fe,V,1.0
1113,Rb1 V4 Cr4 C24 N24,Rb1 V4 Cr4 C24 N24,0.00487891000000007,Rb,Cr,V,1.0
1114,Rb7 Ni4 Os4 C24 N24,Rb7 Ni4 Os4 C24 N24,0.00487891000000007,Rb,Ni,Os,7.0
1115,Rb1 Mn4 Cr4 C24 N24,Rb1 Mn4 Cr4 C24 N24,0.00487891000000007,Rb,Mn,Cr,1.0
1116,Rb7 Mn4 Co4 C24 N24,Rb7 Mn4 Co4 C24 N24,0.00487891000000007,Rb,Mn,Co,7.0
1117,Rb2 Co4 Os4 C24 N24,Rb2 Co4 Os4 C24 N24,0.00487891000000007,Rb,Co,Os,2.0
1118,Rb7 V4 Cr4 C24 N24,Rb7 V4 Cr4 C24 N24,0.00487891000000007,Rb,Cr,V,7.0
1119,Rb7 V4 Zn4 C24 N24,Rb7 V4 Zn4 C24 N24,0.00487891000000007,Rb,Zn,V,7.0
1120,Rb7 V4 Os4 C24 N24,Rb7 V4 Os4 C24 N24,0.00487891000000007,Rb,V,Os,7.0
1121,Rb1 Zn4 Cr4 C24 N24,Rb1 Zn4 Cr4 C24 N24,0.00487891000000007,Rb,Zn,Cr,1.0
1122,Rb7 V4 Fe4 C24 N24,Rb7 V4 Fe4 C24 N24,0.00487891000000007,Rb,Fe,V,7.0
1123,Rb7 Fe4 Ni4 C24 N24,Rb7 Fe4 Ni4 C24 N24,0.00487891000000007,Rb,Ni,Fe,7.0
1124,Rb7 Fe4 Co4 C24 N24,Rb7 Fe4 Co4 C24 N24,0.00487891000000007,Rb,Fe,Co,7.0
1125,Rb7 Zn4 Co4 C24 N24,Rb7 Zn4 Co4 C24 N24,0.00487891000000007,Rb,Zn,Co,7.0
1126,Rb7 Mn4 Fe4 C24 N24,Rb7 Mn4 Fe4 C24 N24,0.00487891000000007,Rb,Mn,Fe,7.0
1127,Rb7 Mn4 Cr4 C24 N24,Rb7 Mn4 Cr4 C24 N24,0.00487891000000007,Rb,Cr,Mn,7.0
1128,Rb7 V4 Ni4 C24 N24,Rb7 V4 Ni4 C24 N24,0.00487891000000007,Rb,Ni,V,7.0
1129,Rb1 Cr4 Cu4 C24 N24,Rb1 Cr4 Cu4 C24 N24,0.00487891000000007,Rb,Cu,Cr,1.0
1130,Rb2 V4 Cr4 C24 N24,Rb2 V4 Cr4 C24 N24,0.00487891000000007,Rb,V,Cr,2.0
1131,Rb7 Mn4 V4 C24 N24,Rb7 Mn4 V4 C24 N24,0.00487891000000007,Rb,V,Mn,7.0
1132,Rb2 Mn4 Cr4 C24 N24,Rb2 Mn4 Cr4 C24 N24,0.00487891000000007,Rb,Mn,Cr,2.0
1133,Rb7 Zn4 Fe4 C24 N24,Rb7 Zn4 Fe4 C24 N24,0.00487891000000007,Rb,Zn,Fe,7.0
1134,Rb7 Mn4 Co4 C24 N24,Rb7 Mn4 Co4 C24 N24,0.00487891000000007,Rb,Co,Mn,7.0
1135,Rb7 Cr4 Co4 C24 N24,Rb7 Cr4 Co4 C24 N24,0.00487891000000007,Rb,Cr,Co,7.0
1136,Rb7 Mn8 C24 N24,Rb7 Mn8 C24 N24,0.00487891000000007,Rb,Mn,Mn,7.0
1137,Rb7 Cr4 Ni4 C24 N24,Rb7 Cr4 Ni4 C24 N24,0.00487891000000007,Rb,Ni,Cr,7.0
1138,Rb7 Mn4 Zn4 C24 N24,Rb7 Mn4 Zn4 C24 N24,0.00487891000000007,Rb,Zn,Mn,7.0
1139,Rb7 Fe8 C24 N24,Rb7 Fe8 C24 N24,0.00487891000000007,Rb,Fe,Fe,7.0
1140,Rb7 Mn4 Cr4 C24 N24,Rb7 Mn4 Cr4 C24 N24,0.00487891000000007,Rb,Mn,Cr,7.0
1141,Rb2 V4 Os4 C24 N24,Rb2 V4 Os4 C24 N24,0.00487891000000007,Rb,V,Os,2.0
1142,,,,,,,
1143,Rb2 Mn8 C24 N24,Rb2 Mn8 C24 N24,0.00487891000000007,Rb,Mn,Mn,2.0
1144,Rb2 Cr4 Os4 C24 N24,Rb2 Cr4 Os4 C24 N24,0.00487891000000007,Rb,Cr,Os,2.0
1145,Rb2 Mn4 V4 C24 N24,Rb2 Mn4 V4 C24 N24,0.00487891000000007,Rb,Mn,V,2.0
1146,Rb7 Cr4 Co4 C24 N24,Rb7 Cr4 Co4 C24 N24,0.00487891000000007,Rb,Co,Cr,7.0
1148,Rb2 Mn4 V4 C24 N24,Rb2 Mn4 V4 C24 N24,0.00487891000000007,Rb,V,Mn,2.0
1149,Rb7 Co4 Ni4 C24 N24,Rb7 Co4 Ni4 C24 N24,0.00487891000000007,Rb,Ni,Co,7.0
1150,Rb7 Zn4 Cr4 C24 N24,Rb7 Zn4 Cr4 C24 N24,0.00487891000000007,Rb,Zn,Cr,7.0
1152,Rb2 Cr4 Ni4 C24 N24,Rb2 Cr4 Ni4 C24 N24,0.00487891000000007,Rb,Ni,Cr,2.0
1153,Rb2 V8 C24 N24,Rb2 V8 C24 N24,0.00487891000000007,Rb,V,V,2.0
1154,Rb7 Mn4 Ni4 C24 N24,Rb7 Mn4 Ni4 C24 N24,0.00487891000000007,Rb,Ni,Mn,7.0
1155,,,,,,,
1156,Rb2 Mn4 Fe4 C24 N24,Rb2 Mn4 Fe4 C24 N24,0.00487891000000007,Rb,Fe,Mn,2.0
1157,Rb2 Ni4 Os4 C24 N24,Rb2 Ni4 Os4 C24 N24,0.00487891000000007,Rb,Ni,Os,2.0
1158,Rb2 Cr8 C24 N24,Rb2 Cr8 C24 N24,0.00487891000000007,Rb,Cr,Cr,2.0
1159,Rb2 Fe8 C24 N24,Rb2 Fe8 C24 N24,0.00487891000000007,Rb,Fe,Fe,2.0
1160,Rb7 Mn4 Fe4 C24 N24,Rb7 Mn4 Fe4 C24 N24,0.00487891000000007,Rb,Fe,Mn,7.0
1161,,,,,,,
1162,Rb2 Mn4 Fe4 C24 N24,Rb2 Mn4 Fe4 C24 N24,0.00487891000000007,Rb,Mn,Fe,2.0
1163,Rb2 V4 Fe4 C24 N24,Rb2 V4 Fe4 C24 N24,0.00487891000000007,Rb,Fe,V,2.0
1164,Rb7 Co4 Cu4 C24 N24,Rb7 Co4 Cu4 C24 N24,0.00487891000000007,Rb,Cu,Co,7.0
1165,Rb2 Mn4 Cr4 C24 N24,Rb2 Mn4 Cr4 C24 N24,0.00487891000000007,Rb,Cr,Mn,2.0
1166,,,,,,,
1167,Rb2 V4 Zn4 C24 N24,Rb2 V4 Zn4 C24 N24,0.00487891000000007,Rb,Zn,V,2.0
1168,Rb2 Mn4 Os4 C24 N24,Rb2 Mn4 Os4 C24 N24,0.00487891000000007,Rb,Mn,Os,2.0
1170,Rb2 Cr4 Fe4 C24 N24,Rb2 Cr4 Fe4 C24 N24,0.00487891000000007,Rb,Cr,Fe,2.0
1171,Rb2 Cr4 Co4 C24 N24,Rb2 Cr4 Co4 C24 N24,0.00487891000000007,Rb,Cr,Co,2.0
1172,Rb2 Fe4 Co4 C24 N24,Rb2 Fe4 Co4 C24 N24,0.00487891000000007,Rb,Co,Fe,2.0
1173,,,,,,,
1174,,,,,,,
1175,Rb2 Fe4 Os4 C24 N24,Rb2 Fe4 Os4 C24 N24,0.00487891000000007,Rb,Fe,Os,2.0
1177,Rb2 Mn4 Co4 C24 N24,Rb2 Mn4 Co4 C24 N24,0.00487891000000007,Rb,Mn,Co,2.0
1178,Rb2 Zn4 Os4 C24 N24,Rb2 Zn4 Os4 C24 N24,0.00487891000000007,Rb,Zn,Os,2.0
1179,Rb2 V4 Co4 C24 N24,Rb2 V4 Co4 C24 N24,0.00487891000000007,Rb,V,Co,2.0
1181,Rb2 V4 Fe4 C24 N24,Rb2 V4 Fe4 C24 N24,0.00487891000000007,Rb,V,Fe,2.0
1182,Rb2 Zn4 Cr4 C24 N24,Rb2 Zn4 Cr4 C24 N24,0.00487891000000007,Rb,Zn,Cr,2.0
1183,Rb2 Zn4 Fe4 C24 N24,Rb2 Zn4 Fe4 C24 N24,0.00487891000000007,Rb,Zn,Fe,2.0
1184,Rb2 Mn4 Ni4 C24 N24,Rb2 Mn4 Ni4 C24 N24,0.00487891000000007,Rb,Ni,Mn,2.0
1185,Rb2 Co8 C24 N24,Rb2 Co8 C24 N24,0.00487891000000007,Rb,Co,Co,2.0
1187,Rb2 Fe4 Co4 C24 N24,Rb2 Fe4 Co4 C24 N24,0.00487891000000007,Rb,Fe,Co,2.0
1188,Rb2 V4 Cr4 C24 N24,Rb2 V4 Cr4 C24 N24,0.00487891000000007,Rb,Cr,V,2.0
1189,,,,,,,
1191,Rb2 Co4 Ni4 C24 N24,Rb2 Co4 Ni4 C24 N24,0.00487891000000007,Rb,Ni,Co,2.0
1193,Rb2 Mn4 Zn4 C24 N24,Rb2 Mn4 Zn4 C24 N24,0.00487891000000007,Rb,Zn,Mn,2.0
1195,Rb2 Cr4 Fe4 C24 N24,Rb2 Cr4 Fe4 C24 N24,0.00487891000000007,Rb,Fe,Cr,2.0
1196,,,,,,,
1197,Rb6 V4 Fe4 C24 N24,Rb6 V4 Fe4 C24 N24,0.00487891000000007,Rb,V,Fe,6.0
1198,Rb2 Fe4 Cu4 C24 N24,Rb2 Fe4 Cu4 C24 N24,0.00487891000000007,Rb,Cu,Fe,2.0
1199,,,,,,,
1200,Rb6 Mn4 V4 C24 N24,Rb6 Mn4 V4 C24 N24,0.00487891000000007,Rb,V,Mn,6.0
1201,Rb6 V4 Os4 C24 N24,Rb6 V4 Os4 C24 N24,0.00487891000000007,Rb,V,Os,6.0
1202,Rb2 V4 Co4 C24 N24,Rb2 V4 Co4 C24 N24,0.00487891000000007,Rb,Co,V,2.0
1203,Rb6 Mn4 Fe4 C24 N24,Rb6 Mn4 Fe4 C24 N24,0.00487891000000007,Rb,Mn,Fe,6.0
1204,Rb6 Mn4 Co4 C24 N24,Rb6 Mn4 Co4 C24 N24,0.00487891000000007,Rb,Co,Mn,6.0
1205,Rb6 Co4 Os4 C24 N24,Rb6 Co4 Os4 C24 N24,0.00487891000000007,Rb,Co,Os,6.0
1206,Rb6 Fe4 Os4 C24 N24,Rb6 Fe4 Os4 C24 N24,0.00487891000000007,Rb,Fe,Os,6.0
1207,Rb6 Fe8 C24 N24,Rb6 Fe8 C24 N24,0.00487891000000007,Rb,Fe,Fe,6.0
1208,Rb6 Cr4 Fe4 C24 N24,Rb6 Cr4 Fe4 C24 N24,0.00487891000000007,Rb,Cr,Fe,6.0
1209,Rb2 Cu4 Os4 C24 N24,Rb2 Cu4 Os4 C24 N24,0.00487891000000007,Rb,Cu,Os,2.0
1210,,,,,,,
1211,Rb6 Mn4 Co4 C24 N24,Rb6 Mn4 Co4 C24 N24,0.00487891000000007,Rb,Mn,Co,6.0
1212,Rb6 Cr4 Os4 C24 N24,Rb6 Cr4 Os4 C24 N24,0.00487891000000007,Rb,Cr,Os,6.0
1213,Rb6 Cr4 Fe4 C24 N24,Rb6 Cr4 Fe4 C24 N24,0.00487891000000007,Rb,Fe,Cr,6.0
1214,Rb2 Cr4 Cu4 C24 N24,Rb2 Cr4 Cu4 C24 N24,0.00487891000000007,Rb,Cu,Cr,2.0
1215,Rb6 Mn4 V4 C24 N24,Rb6 Mn4 V4 C24 N24,0.00487891000000007,Rb,Mn,V,6.0
1216,Rb6 V4 Cr4 C24 N24,Rb6 V4 Cr4 C24 N24,0.00487891000000007,Rb,V,Cr,6.0
1217,Rb6 V4 Fe4 C24 N24,Rb6 V4 Fe4 C24 N24,0.00487891000000007,Rb,Fe,V,6.0
1218,,,,,,,
1219,,,,,,,
1220,,,,,,,