,Composition,Formula,e_above_hull,A_atom,P_atom,R_atom,n_A
1221,Rb6 Zn4 Fe4 C24 N24,Rb6 Zn4 Fe4 C24 N24,0.00487891000000007,Rb,Zn,Fe,6.0
1222,Rb6 Cr8 C24 N24,Rb6 Cr8 C24 N24,0.00487891000000007,Rb,Cr,Cr,6.0
1223,Rb6 Fe4 Co4 C24 N24,Rb6 Fe4 Co4 C24 N24,0.00487891000000007,Rb,Fe,Co,6.0
1224,Rb6 Zn4 Os4 C24 N24,Rb6 Zn4 Os4 C24 N24,0.00487891000000007,Rb,Zn,Os,6.0
1225,Rb6 Cu4 Os4 C24 N24,Rb6 Cu4 Os4 C24 N24,0.00487891000000007,Rb,Cu,Os,6.0
1226,Rb6 Fe4 Co4 C24 N24,Rb6 Fe4 Co4 C24 N24,0.00487891000000007,Rb,Co,Fe,6.0
1230,Rb6 Mn4 Zn4 C24 N24,Rb6 Mn4 Zn4 C24 N24,0.00487891000000007,Rb,Zn,Mn,6.0
1231,Rb6 Zn4 Cr4 C24 N24,Rb6 Zn4 Cr4 C24 N24,0.00487891000000007,Rb,Zn,Cr,6.0
1232,Rb6 Mn4 Ni4 C24 N24,Rb6 Mn4 Ni4 C24 N24,0.00487891000000007,Rb,Ni,Mn,6.0
1234,Rb6 Ni4 Os4 C24 N24,Rb6 Ni4 Os4 C24 N24,0.00487891000000007,Rb,Ni,Os,6.0
1235,Rb6 Mn4 Cr4 C24 N24,Rb6 Mn4 Cr4 C24 N24,0.00487891000000007,Rb,Cr,Mn,6.0
1237,Rb6 Mn4 Os4 C24 N24,Rb6 Mn4 Os4 C24 N24,0.00487891000000007,Rb,Mn,Os,6.0
1239,Rb6 Mn4 Cr4 C24 N24,Rb6 Mn4 Cr4 C24 N24,0.00487891000000007,Rb,Mn,Cr,6.0
1242,Rb6 V4 Cr4 C24 N24,Rb6 V4 Cr4 C24 N24,0.00487891000000007,Rb,Cr,V,6.0
1243,Rb6 Fe4 Ni4 C24 N24,Rb6 Fe4 Ni4 C24 N24,0.00487891000000007,Rb,Ni,Fe,6.0
1244,Rb6 Mn8 C24 N24,Rb6 Mn8 C24 N24,0.00487891000000007,Rb,Mn,Mn,6.0
1245,Rb6 Cr4 Co4 C24 N24,Rb6 Cr4 Co4 C24 N24,0.00487891000000007,Rb,Cr,Co,6.0
1247,Rb6 V8 C24 N24,Rb6 V8 C24 N24,0.00487891000000007,Rb,V,V,6.0
1251,Rb3 Fe4 Os4 C24 N24,Rb3 Fe4 Os4 C24 N24,0.00487891000000007,Rb,Fe,Os,3.0
1252,Rb3 V4 Co4 C24 N24,Rb3 V4 Co4 C24 N24,0.00487891000000007,Rb,V,Co,3.0
1253,Rb3 V8 C24 N24,Rb3 V8 C24 N24,0.00487891000000007,Rb,V,V,3.0
1254,Rb5 Fe8 C24 N24,Rb5 Fe8 C24 N24,0.00487891000000007,Rb,Fe,Fe,5.0
1256,Rb3 Mn4 Co4 C24 N24,Rb3 Mn4 Co4 C24 N24,0.00487891000000007,Rb,Mn,Co,3.0
1257,Rb3 Cr4 Fe4 C24 N24,Rb3 Cr4 Fe4 C24 N24,0.00487891000000007,Rb,Cr,Fe,3.0
1258,Rb3 V4 Cr4 C24 N24,Rb3 V4 Cr4 C24 N24,0.00487891000000007,Rb,Cr,V,3.0
1259,Rb3 Zn4 Co4 C24 N24,Rb3 Zn4 Co4 C24 N24,0.00487891000000007,Rb,Zn,Co,3.0
1260,Rb5 V4 Os4 C24 N24,Rb5 V4 Os4 C24 N24,0.00487891000000007,Rb,V,Os,5.0
1262,Rb3 Mn4 Os4 C24 N24,Rb3 Mn4 Os4 C24 N24,0.00487891000000007,Rb,Mn,Os,3.0
1263,Rb3 V4 Co4 C24 N24,Rb3 V4 Co4 C24 N24,0.00487891000000007,Rb,Co,V,3.0
1264,Rb5 V4 Cr4 C24 N24,Rb5 V4 Cr4 C24 N24,0.00487891000000007,Rb,Cr,V,5.0
1265,Rb3 Co4 Ni4 C24 N24,Rb3 Co4 Ni4 C24 N24,0.00487891000000007,Rb,Ni,Co,3.0
1266,Rb3 Cr4 Ni4 C24 N24,Rb3 Cr4 Ni4 C24 N24,0.00487891000000007,Rb,Ni,Cr,3.0
1267,Rb5 V4 Co4 C24 N24,Rb5 V4 Co4 C24 N24,0.00487891000000007,Rb,V,Co,5.0
1268,Rb5 Fe4 Co4 C24 N24,Rb5 Fe4 Co4 C24 N24,0.00487891000000007,Rb,Fe,Co,5.0
1269,Rb3 Fe4 Co4 C24 N24,Rb3 Fe4 Co4 C24 N24,0.00487891000000007,Rb,Co,Fe,3.0
1270,Rb3 Fe4 Co4 C24 N24,Rb3 Fe4 Co4 C24 N24,0.00487891000000007,Rb,Fe,Co,3.0
1271,Rb3 Zn4 Os4 C24 N24,Rb3 Zn4 Os4 C24 N24,0.00487891000000007,Rb,Zn,Os,3.0
1272,Rb3 Cr8 C24 N24,Rb3 Cr8 C24 N24,0.00487891000000007,Rb,Cr,Cr,3.0
1273,Rb3 Mn8 C24 N24,Rb3 Mn8 C24 N24,0.00487891000000007,Rb,Mn,Mn,3.0
1274,Rb3 Mn4 Cr4 C24 N24,Rb3 Mn4 Cr4 C24 N24,0.00487891000000007,Rb,Cr,Mn,3.0
1275,Rb5 V4 Cr4 C24 N24,Rb5 V4 Cr4 C24 N24,0.00487891000000007,Rb,V,Cr,5.0
1276,Rb5 Cr8 C24 N24,Rb5 Cr8 C24 N24,0.00487891000000007,Rb,Cr,Cr,5.0
1277,Rb4 Co4 Ni4 C24 N24,Rb4 Co4 Ni4 C24 N24,0.00487891000000007,Rb,Ni,Co,4.0
1278,Rb3 Cr4 Fe4 C24 N24,Rb3 Cr4 Fe4 C24 N24,0.00487891000000007,Rb,Fe,Cr,3.0
1279,Mg4 Co4 Ni4 C24 N24,Mg4 Co4 Ni4 C24 N24,0.03918191000000015,Mg,Ni,Co,4.0
1280,Rb3 Co8 C24 N24,Rb3 Co8 C24 N24,0.00487891000000007,Rb,Co,Co,3.0
1281,Rb5 Mn4 Fe4 C24 N24,Rb5 Mn4 Fe4 C24 N24,0.00487891000000007,Rb,Mn,Fe,5.0
1282,Rb3 V4 Cr4 C24 N24,Rb3 V4 Cr4 C24 N24,0.00487891000000007,Rb,V,Cr,3.0
1283,Rb3 V4 Ni4 C24 N24,Rb3 V4 Ni4 C24 N24,0.00487891000000007,Rb,Ni,V,3.0
1284,Rb3 Cr4 Co4 C24 N24,Rb3 Cr4 Co4 C24 N24,0.00487891000000007,Rb,Cr,Co,3.0
1285,Rb5 Fe4 Cu4 C24 N24,Rb5 Fe4 Cu4 C24 N24,0.00487891000000007,Rb,Cu,Fe,5.0
1286,Rb5 Zn4 Co4 C24 N24,Rb5 Zn4 Co4 C24 N24,0.00487891000000007,Rb,Zn,Co,5.0
1291,Rb8 V4 Fe4 C24 N24,Rb8 V4 Fe4 C24 N24,0.00487891000000007,Rb,V,Fe,8.0
1294,Rb8 Mn4 Zn4 C24 N24,Rb8 Mn4 Zn4 C24 N24,0.00487891000000007,Rb,Zn,Mn,8.0
1295,Rb8 Cr4 Fe4 C24 N24,Rb8 Cr4 Fe4 C24 N24,0.00487891000000007,Rb,Cr,Fe,8.0
1296,Rb8 Mn4 V4 C24 N24,Rb8 Mn4 V4 C24 N24,0.00487891000000007,Rb,V,Mn,8.0
1297,Rb1 Fe4 Co4 C24 N24,Rb1 Fe4 Co4 C24 N24,0.00487891000000007,Rb,Co,Fe,1.0
1298,Rb7 Mn4 V4 C24 N24,Rb7 Mn4 V4 C24 N24,0.00487891000000007,Rb,Mn,V,7.0
1300,Rb8 Mn4 Co4 C24 N24,Rb8 Mn4 Co4 C24 N24,0.00487891000000007,Rb,Co,Mn,8.0
1301,Rb1 Mn4 Fe4 C24 N24,Rb1 Mn4 Fe4 C24 N24,0.00487891000000007,Rb,Mn,Fe,1.0
1302,Rb7 Cu4 Os4 C24 N24,Rb7 Cu4 Os4 C24 N24,0.00487891000000007,Rb,Cu,Os,7.0
1303,Rb8 Cr4 Ni4 C24 N24,Rb8 Cr4 Ni4 C24 N24,0.00487891000000007,Rb,Ni,Cr,8.0
1304,Rb1 Cr4 Ni4 C24 N24,Rb1 Cr4 Ni4 C24 N24,0.00487891000000007,Rb,Ni,Cr,1.0
1305,Rb7 Co8 C24 N24,Rb7 Co8 C24 N24,0.00487891000000007,Rb,Co,Co,7.0
1306,Rb7 Cr4 Fe4 C24 N24,Rb7 Cr4 Fe4 C24 N24,0.00487891000000007,Rb,Cr,Fe,7.0
1307,Rb1 Zn4 Fe4 C24 N24,Rb1 Zn4 Fe4 C24 N24,0.00487891000000007,Rb,Zn,Fe,1.0
1308,Rb1 Co4 Ni4 C24 N24,Rb1 Co4 Ni4 C24 N24,0.00487891000000007,Rb,Ni,Co,1.0
1310,Rb2 Cr4 Co4 C24 N24,Rb2 Cr4 Co4 C24 N24,0.00487891000000007,Rb,Co,Cr,2.0
1317,Rb1 Ni4 Os4 C24 N24,Rb1 Ni4 Os4 C24 N24,0.00487891000000007,Rb,Ni,Os,1.0
1320,Rb2 Co4 Cu4 C24 N24,Rb2 Co4 Cu4 C24 N24,0.00487891000000007,Rb,Cu,Co,2.0
1323,Rb2 Mn4 Co4 C24 N24,Rb2 Mn4 Co4 C24 N24,0.00487891000000007,Rb,Co,Mn,2.0
1334,Rb3 Mn4 Fe4 C24 N24,Rb3 Mn4 Fe4 C24 N24,0.00487891000000007,Rb,Fe,Mn,3.0
1336,Rb3 Co4 Os4 C24 N24,Rb3 Co4 Os4 C24 N24,0.00487891000000007,Rb,Co,Os,3.0
1342,Rb6 Zn4 Co4 C24 N24,Rb6 Zn4 Co4 C24 N24,0.00487891000000007,Rb,Zn,Co,6.0
1344,Rb3 Cr4 Os4 C24 N24,Rb3 Cr4 Os4 C24 N24,0.00487891000000007,Rb,Cr,Os,3.0
1346,Rb6 Cr4 Ni4 C24 N24,Rb6 Cr4 Ni4 C24 N24,0.00487891000000007,Rb,Ni,Cr,6.0
1347,Rb6 Mn4 Fe4 C24 N24,Rb6 Mn4 Fe4 C24 N24,0.00487891000000007,Rb,Fe,Mn,6.0
1349,Rb6 Cr4 Co4 C24 N24,Rb6 Cr4 Co4 C24 N24,0.00487891000000007,Rb,Co,Cr,6.0
1353,Rb3 Mn4 Cr4 C24 N24,Rb3 Mn4 Cr4 C24 N24,0.00487891000000007,Rb,Mn,Cr,3.0
1361,Rb5 Cr4 Os4 C24 N24,Rb5 Cr4 Os4 C24 N24,0.00487891000000007,Rb,Cr,Os,5.0
1362,Rb3 Zn4 Cr4 C24 N24,Rb3 Zn4 Cr4 C24 N24,0.00487891000000007,Rb,Zn,Cr,3.0
1368,Rb3 Mn4 V4 C24 N24,Rb3 Mn4 V4 C24 N24,0.00487891000000007,Rb,Mn,V,3.0
1374,Rb5 V4 Fe4 C24 N24,Rb5 V4 Fe4 C24 N24,0.00487891000000007,Rb,Fe,V,5.0
1377,Rb3 V4 Fe4 C24 N24,Rb3 V4 Fe4 C24 N24,0.00487891000000007,Rb,Fe,V,3.0
1378,Rb6 Co8 C24 N24,Rb6 Co8 C24 N24,0.00487891000000007,Rb,Co,Co,6.0
1379,Rb3 V4 Os4 C24 N24,Rb3 V4 Os4 C24 N24,0.00487891000000007,Rb,V,Os,3.0
1380,Rb5 Mn4 Ni4 C24 N24,Rb5 Mn4 Ni4 C24 N24,0.00487891000000007,Rb,Ni,Mn,5.0
1383,Rb3 V4 Fe4 C24 N24,Rb3 V4 Fe4 C24 N24,0.00487891000000007,Rb,V,Fe,3.0
1385,Rb3 Mn4 Co4 C24 N24,Rb3 Mn4 Co4 C24 N24,0.00487891000000007,Rb,Co,Mn,3.0
1387,Rb3 Cr4 Co4 C24 N24,Rb3 Cr4 Co4 C24 N24,0.00487891000000007,Rb,Co,Cr,3.0
1390,Rb5 Co4 Os4 C24 N24,Rb5 Co4 Os4 C24 N24,0.00487891000000007,Rb,Co,Os,5.0
1391,Rb5 Zn4 Os4 C24 N24,Rb5 Zn4 Os4 C24 N24,0.00487891000000007,Rb,Zn,Os,5.0
1392,Rb5 V8 C24 N24,Rb5 V8 C24 N24,0.00487891000000007,Rb,V,V,5.0
1393,Rb6 V4 Ni4 C24 N24,Rb6 V4 Ni4 C24 N24,0.00487891000000007,Rb,Ni,V,6.0
1396,Rb5 Mn4 Cr4 C24 N24,Rb5 Mn4 Cr4 C24 N24,0.00487891000000007,Rb,Mn,Cr,5.0
1398,Rb3 Mn4 V4 C24 N24,Rb3 Mn4 V4 C24 N24,0.00487891000000007,Rb,V,Mn,3.0
1399,,,,,,,
1400,Rb5 Mn4 Cr4 C24 N24,Rb5 Mn4 Cr4 C24 N24,0.00487891000000007,Rb,Cr,Mn,5.0
1408,Rb5 V4 Co4 C24 N24,Rb5 V4 Co4 C24 N24,0.00487891000000007,Rb,Co,V,5.0
1409,Rb5 Mn4 Co4 C24 N24,Rb5 Mn4 Co4 C24 N24,0.00487891000000007,Rb,Mn,Co,5.0
1412,Rb6 V4 Zn4 C24 N24,Rb6 V4 Zn4 C24 N24,0.00487891000000007,Rb,Zn,V,6.0
1414,Rb5 Mn4 Fe4 C24 N24,Rb5 Mn4 Fe4 C24 N24,0.00487891000000007,Rb,Fe,Mn,5.0
1416,Rb5 Co4 Ni4 C24 N24,Rb5 Co4 Ni4 C24 N24,0.00487891000000007,Rb,Ni,Co,5.0
1423,Rb5 Mn4 Zn4 C24 N24,Rb5 Mn4 Zn4 C24 N24,0.00487891000000007,Rb,Zn,Mn,5.0
1424,Rb4 Cr4 Os4 C24 N24,Rb4 Cr4 Os4 C24 N24,0.00487891000000007,Rb,Cr,Os,4.0
1425,Rb5 Cr4 Co4 C24 N24,Rb5 Cr4 Co4 C24 N24,0.00487891000000007,Rb,Co,Cr,5.0
1426,Rb5 Mn4 V4 C24 N24,Rb5 Mn4 V4 C24 N24,0.00487891000000007,Rb,Mn,V,5.0
1431,Rb5 Cr4 Ni4 C24 N24,Rb5 Cr4 Ni4 C24 N24,0.00487891000000007,Rb,Ni,Cr,5.0
1433,Rb5 Zn4 Cr4 C24 N24,Rb5 Zn4 Cr4 C24 N24,0.00487891000000007,Rb,Zn,Cr,5.0
1434,Rb5 Mn8 C24 N24,Rb5 Mn8 C24 N24,0.00487891000000007,Rb,Mn,Mn,5.0
1436,Rb5 Co4 Cu4 C24 N24,Rb5 Co4 Cu4 C24 N24,0.00487891000000007,Rb,Cu,Co,5.0
1440,Rb4 Co4 Os4 C24 N24,Rb4 Co4 Os4 C24 N24,0.00487891000000007,Rb,Co,Os,4.0
1442,Rb4 V4 Co4 C24 N24,Rb4 V4 Co4 C24 N24,0.00487891000000007,Rb,V,Co,4.0
1443,Rb5 Cr4 Fe4 C24 N24,Rb5 Cr4 Fe4 C24 N24,0.00487891000000007,Rb,Cr,Fe,5.0
1444,Rb4 Mn4 V4 C24 N24,Rb4 Mn4 V4 C24 N24,0.00487891000000007,Rb,Mn,V,4.0
1445,Rb4 Mn4 Cr4 C24 N24,Rb4 Mn4 Cr4 C24 N24,0.00487891000000007,Rb,Mn,Cr,4.0
1446,Rb5 Fe4 Os4 C24 N24,Rb5 Fe4 Os4 C24 N24,0.00487891000000007,Rb,Fe,Os,5.0
1449,Rb4 Fe4 Co4 C24 N24,Rb4 Fe4 Co4 C24 N24,0.00487891000000007,Rb,Fe,Co,4.0
1450,Rb4 Cr4 Fe4 C24 N24,Rb4 Cr4 Fe4 C24 N24,0.00487891000000007,Rb,Fe,Cr,4.0
1451,Rb4 Mn8 C24 N24,Rb4 Mn8 C24 N24,0.00487891000000007,Rb,Mn,Mn,4.0
1453,Rb4 Mn4 V4 C24 N24,Rb4 Mn4 V4 C24 N24,0.00487891000000007,Rb,V,Mn,4.0
1454,Rb4 Mn4 Zn4 C24 N24,Rb4 Mn4 Zn4 C24 N24,0.00487891000000007,Rb,Zn,Mn,4.0
1455,Rb4 Zn4 Co4 C24 N24,Rb4 Zn4 Co4 C24 N24,0.00487891000000007,Rb,Zn,Co,4.0
1456,Rb5 Co8 C24 N24,Rb5 Co8 C24 N24,0.00487891000000007,Rb,Co,Co,5.0
1458,Rb5 Mn4 V4 C24 N24,Rb5 Mn4 V4 C24 N24,0.00487891000000007,Rb,V,Mn,5.0
1462,Rb4 Cr4 Ni4 C24 N24,Rb4 Cr4 Ni4 C24 N24,0.00487891000000007,Rb,Ni,Cr,4.0
1463,Rb5 V4 Zn4 C24 N24,Rb5 V4 Zn4 C24 N24,0.00487891000000007,Rb,Zn,V,5.0
1465,Rb5 Fe4 Co4 C24 N24,Rb5 Fe4 Co4 C24 N24,0.00487891000000007,Rb,Co,Fe,5.0
1467,Rb4 V4 Cr4 C24 N24,Rb4 V4 Cr4 C24 N24,0.00487891000000007,Rb,V,Cr,4.0
1468,Rb4 Mn4 Fe4 C24 N24,Rb4 Mn4 Fe4 C24 N24,0.00487891000000007,Rb,Fe,Mn,4.0
1469,Rb4 Cr4 Fe4 C24 N24,Rb4 Cr4 Fe4 C24 N24,0.00487891000000007,Rb,Cr,Fe,4.0
1470,Rb4 V4 Fe4 C24 N24,Rb4 V4 Fe4 C24 N24,0.00487891000000007,Rb,Fe,V,4.0
1473,Rb4 V4 Fe4 C24 N24,Rb4 V4 Fe4 C24 N24,0.00487891000000007,Rb,V,Fe,4.0
1474,Rb4 Zn4 Cr4 C24 N24,Rb4 Zn4 Cr4 C24 N24,0.00487891000000007,Rb,Zn,Cr,4.0
1477,Rb4 Fe8 C24 N24,Rb4 Fe8 C24 N24,0.00487891000000007,Rb,Fe,Fe,4.0
1480,Rb4 Mn4 Fe4 C24 N24,Rb4 Mn4 Fe4 C24 N24,0.00487891000000007,Rb,Mn,Fe,4.0
1481,Rb4 Cr4 Co4 C24 N24,Rb4 Cr4 Co4 C24 N24,0.00487891000000007,Rb,Co,Cr,4.0
1482,Rb4 Cr4 Co4 C24 N24,Rb4 Cr4 Co4 C24 N24,0.00487891000000007,Rb,Cr,Co,4.0
1483,Rb4 Cr8 C24 N24,Rb4 Cr8 C24 N24,0.00487891000000007,Rb,Cr,Cr,4.0
1487,Rb4 Mn4 Cr4 C24 N24,Rb4 Mn4 Cr4 C24 N24,0.00487891000000007,Rb,Cr,Mn,4.0
1489,Rb4 Fe4 Co4 C24 N24,Rb4 Fe4 Co4 C24 N24,0.00487891000000007,Rb,Co,Fe,4.0
1493,Rb4 V4 Os4 C24 N24,Rb4 V4 Os4 C24 N24,0.00487891000000007,Rb,V,Os,4.0
1495,Rb5 Cr4 Fe4 C24 N24,Rb5 Cr4 Fe4 C24 N24,0.00487891000000007,Rb,Fe,Cr,5.0
1497,Rb5 V4 Ni4 C24 N24,Rb5 V4 Ni4 C24 N24,0.00487891000000007,Rb,Ni,V,5.0
1504,Rb4 V8 C24 N24,Rb4 V8 C24 N24,0.00487891000000007,Rb,V,V,4.0
1506,Ca2 Mn4 Fe4 C24 N24,Ca2 Mn4 Fe4 C24 N24,0.4185173499999999,Ca,Fe,Mn,2.0
1511,Rb4 Mn4 Os4 C24 N24,Rb4 Mn4 Os4 C24 N24,0.00487891000000007,Rb,Mn,Os,4.0
1512,Rb4 V4 Co4 C24 N24,Rb4 V4 Co4 C24 N24,0.00487891000000007,Rb,Co,V,4.0
1516,Rb4 V4 Cr4 C24 N24,Rb4 V4 Cr4 C24 N24,0.00487891000000007,Rb,Cr,V,4.0
1520,Rb5 Cr4 Cu4 C24 N24,Rb5 Cr4 Cu4 C24 N24,0.00487891000000007,Rb,Cu,Cr,5.0
1522,Rb4 Fe4 Os4 C24 N24,Rb4 Fe4 Os4 C24 N24,0.00487891000000007,Rb,Fe,Os,4.0
1524,Rb4 Zn4 Fe4 C24 N24,Rb4 Zn4 Fe4 C24 N24,0.00487891000000007,Rb,Zn,Fe,4.0
1536,Rb4 Mn4 Ni4 C24 N24,Rb4 Mn4 Ni4 C24 N24,0.00487891000000007,Rb,Ni,Mn,4.0
1541,Rb4 Ni4 Os4 C24 N24,Rb4 Ni4 Os4 C24 N24,0.00487891000000007,Rb,Ni,Os,4.0
1550,Rb4 Zn4 Os4 C24 N24,Rb4 Zn4 Os4 C24 N24,0.00487891000000007,Rb,Zn,Os,4.0
1553,Rb4 V4 Zn4 C24 N24,Rb4 V4 Zn4 C24 N24,0.00487891000000007,Rb,Zn,V,4.0
1557,Rb5 Zn4 Fe4 C24 N24,Rb5 Zn4 Fe4 C24 N24,0.00487891000000007,Rb,Zn,Fe,5.0
1561,Ca2 Fe4 Cu4 C24 N24,Ca2 Fe4 Cu4 C24 N24,0.4185173499999999,Ca,Cu,Fe,2.0
1572,Rb4 Co4 Cu4 C24 N24,Rb4 Co4 Cu4 C24 N24,0.00487891000000007,Rb,Cu,Co,4.0
1573,Rb4 Mn4 Co4 C24 N24,Rb4 Mn4 Co4 C24 N24,0.00487891000000007,Rb,Co,Mn,4.0
1578,Li2 Mn4 V4 C24 N24,Li2 Mn4 V4 C24 N24,0.0028601699999999397,Li,V,Mn,2.0
1582,Rb4 Mn4 Co4 C24 N24,Rb4 Mn4 Co4 C24 N24,0.00487891000000007,Rb,Mn,Co,4.0
1586,Mg2 Mn8 C24 N24,Mg2 Mn8 C24 N24,0.03918191000000015,Mg,Mn,Mn,2.0
1590,Rb4 Cr4 Cu4 C24 N24,Rb4 Cr4 Cu4 C24 N24,0.00487891000000007,Rb,Cu,Cr,4.0
1592,Li2 Mn4 In4 C24 N24,Li2 Mn4 In4 C24 N24,0.0028601699999999397,Li,In,Mn,2.0
1595,Li2 Cr4 Co4 C24 N24,Li2 Cr4 Co4 C24 N24,0.0028601699999999397,Li,Cr,Co,2.0
1596,Mg2 Mn4 Cr4 C24 N24,Mg2 Mn4 Cr4 C24 N24,0.03918191000000015,Mg,Mn,Cr,2.0
1598,Na2 V4 Os4 C24 N24,Na2 V4 Os4 C24 N24,0.12552336919563345,Na,V,Os,2.0
1614,Ca2 Cr4 Cu4 C24 N24,Ca2 Cr4 Cu4 C24 N24,0.4185173499999999,Ca,Cu,Cr,2.0
1629,Li2 Mn4 Zn4 C24 N24,Li2 Mn4 Zn4 C24 N24,0.0028601699999999397,Li,Zn,Mn,2.0
1630,Ca2 V4 Cr4 C24 N24,Ca2 V4 Cr4 C24 N24,0.4185173499999999,Ca,V,Cr,2.0
1632,Na2 Mn4 V4 C24 N24,Na2 Mn4 V4 C24 N24,0.12850119249999992,Na,V,Mn,2.0
1634,K2 Cu4 Os4 C24 N24,K2 Cu4 Os4 C24 N24,0.11553698000000001,K,Cu,Os,2.0
1636,Sr2 Cr4 Co4 C24 N24,Sr2 Cr4 Co4 C24 N24,0.005491380000000046,Sr,Cr,Co,2.0
1639,K2 V4 Fe4 C24 N24,K2 V4 Fe4 C24 N24,0.11553698000000001,K,V,Fe,2.0
1643,Sr2 In4 Fe4 C24 N24,Sr2 In4 Fe4 C24 N24,0.005491380000000046,Sr,In,Fe,2.0
1647,Li2 Mn4 Co4 C24 N24,Li2 Mn4 Co4 C24 N24,0.0028601699999999397,Li,Co,Mn,2.0
1649,Mg2 Cr4 Cu4 C24 N24,Mg2 Cr4 Cu4 C24 N24,0.03918191000000015,Mg,Cu,Cr,2.0
1652,Na6 Co4 Os4 C24 N24,Na6 Co4 Os4 C24 N24,0.12850119249999992,Na,Co,Os,6.0
1655,Ca2 In4 Fe4 C24 N24,Ca2 In4 Fe4 C24 N24,0.25680693621517303,Ca,In,Fe,2.0
1657,Sr6 Co8 C24 N24,Sr6 Co8 C24 N24,0.00549138000000049,Sr,Co,Co,6.0
1659,Sr2 Cr4 In4 C24 N24,Sr2 Cr4 In4 C24 N24,0.005491380000000046,Sr,In,Cr,2.0
1660,Li6 Zn4 Fe4 C24 N24,Li6 Zn4 Fe4 C24 N24,0.0028601699999999397,Li,Zn,Fe,6.0
1661,K6 Cr4 Ni4 C24 N24,K6 Cr4 Ni4 C24 N24,0.11553698000000001,K,Ni,Cr,6.0
1662,Na6 Co8 C24 N24,Na6 Co8 C24 N24,0.12850119249999992,Na,Co,Co,6.0
1667,Na6 Zn4 Cr4 C24 N24,Na6 Zn4 Cr4 C24 N24,0.12850119249999992,Na,Zn,Cr,6.0
1668,Na6 Cr4 Co4 C24 N24,Na6 Cr4 Co4 C24 N24,0.12850119249999992,Na,Co,Cr,6.0
1675,K6 Cr4 Co4 C24 N24,K6 Cr4 Co4 C24 N24,0.11553698000000001,K,Cr,Co,6.0
1678,Li6 Mn4 Fe4 C24 N24,Li6 Mn4 Fe4 C24 N24,0.0028601699999999397,Li,Fe,Mn,6.0
1680,Na6 Zn4 Fe4 C24 N24,Na6 Zn4 Fe4 C24 N24,0.12850119249999992,Na,Zn,Fe,6.0
1682,Ca6 Fe4 Ni4 C24 N24,Ca6 Fe4 Ni4 C24 N24,0.4185173499999999,Ca,Ni,Fe,6.0
1683,Ca6 Fe4 Co4 C24 N24,Ca6 Fe4 Co4 C24 N24,0.4185173499999999,Ca,Co,Fe,6.0
1689,Ca6 Cr4 Co4 C24 N24,Ca6 Cr4 Co4 C24 N24,0.4185173499999999,Ca,Cr,Co,6.0
1692,K6 Co8 C24 N24,K6 Co8 C24 N24,0.11553698000000001,K,Co,Co,6.0
1693,Li6 V4 Co4 C24 N24,Li6 V4 Co4 C24 N24,0.0028601699999999397,Li,Co,V,6.0
1696,K6 Zn4 Co4 C24 N24,K6 Zn4 Co4 C24 N24,0.11553698000000001,K,Zn,Co,6.0
1697,Ca6 V4 Co4 C24 N24,Ca6 V4 Co4 C24 N24,0.4185173499999999,Ca,V,Co,6.0
1698,Ca6 V4 Ni4 C24 N24,Ca6 V4 Ni4 C24 N24,0.4185173499999999,Ca,Ni,V,6.0
1704,Mg6 Cr4 Cu4 C24 N24,Mg6 Cr4 Cu4 C24 N24,0.03918191000000015,Mg,Cu,Cr,6.0
1709,K6 Ni4 Os4 C24 N24,K6 Ni4 Os4 C24 N24,0.11553698000000001,K,Ni,Os,6.0
1710,K6 Co4 Ni4 C24 N24,K6 Co4 Ni4 C24 N24,0.11553698000000001,K,Ni,Co,6.0
1711,K6 Cr4 Fe4 C24 N24,K6 Cr4 Fe4 C24 N24,0.11553698000000001,K,Cr,Fe,6.0
1712,Ca6 Co4 Ni4 C24 N24,Ca6 Co4 Ni4 C24 N24,0.4185173499999999,Ca,Ni,Co,6.0
1713,Ca6 Mn4 Cu4 C24 N24,Ca6 Mn4 Cu4 C24 N24,0.4185173499999999,Ca,Cu,Mn,6.0
1715,Sr6 Fe4 Ni4 C24 N24,Sr6 Fe4 Ni4 C24 N24,0.005491380000000046,Sr,Ni,Fe,6.0
1716,Li4 Mn4 V4 C24 N24,Li4 Mn4 V4 C24 N24,0.0028601699999999397,Li,Mn,V,4.0
1719,Li6 V4 Ni4 C24 N24,Li6 V4 Ni4 C24 N24,0.0028601699999999397,Li,Ni,V,6.0
1720,Ca4 Mn8 C24 N24,Ca4 Mn8 C24 N24,0.4185173499999999,Ca,Mn,Mn,4.0
1721,Ca4 Mn4 Ni4 C24 N24,Ca4 Mn4 Ni4 C24 N24,0.4185173499999999,Ca,Ni,Mn,4.0
1724,Sr4 Ni4 Os4 C24 N24,Sr4 Ni4 Os4 C24 N24,0.005491380000000046,Sr,Ni,Os,4.0
1726,Sr4 Mn4 V4 C24 N24,Sr4 Mn4 V4 C24 N24,0.005491380000000046,Sr,V,Mn,4.0
1728,K4 Mn4 Fe4 C24 N24,K4 Mn4 Fe4 C24 N24,0.11553698000000001,K,Fe,Mn,4.0
1731,Na4 Mn4 V4 C24 N24,Na4 Mn4 V4 C24 N24,0.12850119249999992,Na,Mn,V,4.0
1732,Na4 V4 Fe4 C24 N24,Na4 V4 Fe4 C24 N24,0.12850119249999992,Na,Fe,V,4.0
1733,Na4 Mn4 Fe4 C24 N24,Na4 Mn4 Fe4 C24 N24,0.12850119249999992,Na,Fe,Mn,4.0
1738,Sr4 Cr8 C24 N24,Sr4 Cr8 C24 N24,0.005491380000000046,Sr,Cr,Cr,4.0
1742,Li4 Fe4 Os4 C24 N24,Li4 Fe4 Os4 C24 N24,0.0028601699999999397,Li,Fe,Os,4.0
1748,Li4 Cr4 Cu4 C24 N24,Li4 Cr4 Cu4 C24 N24,0.0028601699999999397,Li,Cu,Cr,4.0
1749,K4 Fe8 C24 N24,K4 Fe8 C24 N24,0.11553698000000001,K,Fe,Fe,4.0
1750,Li4 Fe4 Cu4 C24 N24,Li4 Fe4 Cu4 C24 N24,0.0028601699999999397,Li,Cu,Fe,4.0
1751,Na4 Cr4 Co4 C24 N24,Na4 Cr4 Co4 C24 N24,0.12850119249999992,Na,Co,Cr,4.0
1752,Li6 Cr4 Cu4 C24 N24,Li6 Cr4 Cu4 C24 N24,0.0028601699999999397,Li,Cu,Cr,6.0
1754,Na4 Cr4 In4 C24 N24,Na4 Cr4 In4 C24 N24,0.12850119249999992,Na,In,Cr,4.0
1760,Mg4 Mn4 Co4 C24 N24,Mg4 Mn4 Co4 C24 N24,0.03918191000000015,Mg,Co,Mn,4.0
1763,Ca4 Co4 Os4 C24 N24,Ca4 Co4 Os4 C24 N24,0.4185173499999999,Ca,Co,Os,4.0
1766,K4 Mn4 Ni4 C24 N24,K4 Mn4 Ni4 C24 N24,0.11553698000000001,K,Ni,Mn,4.0
1769,Mg4 Mn4 Fe4 C24 N24,Mg4 Mn4 Fe4 C24 N24,0.03918191000000015,Mg,Fe,Mn,4.0
1770,Mg4 Mn4 Co4 C24 N24,Mg4 Mn4 Co4 C24 N24,0.03918191000000015,Mg,Mn,Co,4.0
1771,Sr4 Co4 Os4 C24 N24,Sr4 Co4 Os4 C24 N24,0.005491380000000046,Sr,Co,Os,4.0
1772,Ca4 Mn4 Cu4 C24 N24,Ca4 Mn4 Cu4 C24 N24,0.4185173499999999,Ca,Cu,Mn,4.0
1775,Mg4 V4 Zn4 C24 N24,Mg4 V4 Zn4 C24 N24,0.03918191000000015,Mg,Zn,V,4.0
1777,K4 V4 Fe4 C24 N24,K4 V4 Fe4 C24 N24,0.11553698000000001,K,Fe,V,4.0
1780,K4 Cr8 C24 N24,K4 Cr8 C24 N24,0.11553698000000001,K,Cr,Cr,4.0
1786,Ca4 Cr4 Fe4 C24 N24,Ca4 Cr4 Fe4 C24 N24,0.4185173499999999,Ca,Fe,Cr,4.0
1787,Sr4 Cu4 Os4 C24 N24,Sr4 Cu4 Os4 C24 N24,0.005491380000000046,Sr,Cu,Os,4.0
1791,Na4 Zn4 Os4 C24 N24,Na4 Zn4 Os4 C24 N24,0.12850119249999992,Na,Zn,Os,4.0
1792,K4 Mn4 Os4 C24 N24,K4 Mn4 Os4 C24 N24,0.11553698000000001,K,Mn,Os,4.0
1796,K4 Fe4 Cu4 C24 N24,K4 Fe4 Cu4 C24 N24,0.11553698000000001,K,Cu,Fe,4.0
1798,K4 In4 Os4 C24 N24,K4 In4 Os4 C24 N24,0.07667128658333411,K,In,Os,4.0
1799,Mg4 Co8 C24 N24,Mg4 Co8 C24 N24,0.03918191000000015,Mg,Co,Co,4.0
1802,K4 Mn4 Co4 C24 N24,K4 Mn4 Co4 C24 N24,0.11553698000000001,K,Mn,Co,4.0
1807,Li4 Mn4 Zn4 C24 N24,Li4 Mn4 Zn4 C24 N24,0.0028601699999999397,Li,Zn,Mn,4.0
1815,Li4 V4 Fe4 C24 N24,Li4 V4 Fe4 C24 N24,0.0028601699999999397,Li,V,Fe,4.0
1838,Sr4 Co4 Ni4 C24 N24,Sr4 Co4 Ni4 C24 N24,0.005491380000000046,Sr,Ni,Co,4.0
1839,Na4 Cr4 Fe4 C24 N24,Na4 Cr4 Fe4 C24 N24,0.12850119249999992,Na,Fe,Cr,4.0
1845,Ca4 Cu4 Os4 C24 N24,Ca4 Cu4 Os4 C24 N24,0.4185173499999999,Ca,Cu,Os,4.0
1848,Mg4 V4 Co4 C24 N24,Mg4 V4 Co4 C24 N24,0.03918191000000015,Mg,Co,V,4.0
1849,Li4 V4 Zn4 C24 N24,Li4 V4 Zn4 C24 N24,0.0028601699999999397,Li,Zn,V,4.0
1850,Ca4 Co8 C24 N24,Ca4 Co8 C24 N24,0.4185173499999999,Ca,Co,Co,4.0
1852,Ca4 Mn4 Zn4 C24 N24,Ca4 Mn4 Zn4 C24 N24,0.4185173499999999,Ca,Zn,Mn,4.0
1853,Na4 Mn4 Ni4 C24 N24,Na4 Mn4 Ni4 C24 N24,0.12850119249999992,Na,Ni,Mn,4.0
1856,Na4 Fe4 Cu4 C24 N24,Na4 Fe4 Cu4 C24 N24,0.12850119249999992,Na,Cu,Fe,4.0
1857,Mg4 V4 Cr4 C24 N24,Mg4 V4 Cr4 C24 N24,0.03918191000000015,Mg,V,Cr,4.0
1858,Sr4 Fe4 Os4 C24 N24,Sr4 Fe4 Os4 C24 N24,0.005491380000000046,Sr,Fe,Os,4.0
1859,Li4 Zn4 Fe4 C24 N24,Li4 Zn4 Fe4 C24 N24,0.0028601699999999397,Li,Zn,Fe,4.0
1860,K4 Zn4 Co4 C24 N24,K4 Zn4 Co4 C24 N24,0.11553698000000001,K,Zn,Co,4.0
1865,Mg4 Cr4 Co4 C24 N24,Mg4 Cr4 Co4 C24 N24,0.03918191000000015,Mg,Co,Cr,4.0
1871,Sr4 V4 Zn4 C24 N24,Sr4 V4 Zn4 C24 N24,0.005491380000000046,Sr,Zn,V,4.0
1872,Li4 Cu4 Os4 C24 N24,Li4 Cu4 Os4 C24 N24,0.0028601699999999397,Li,Cu,Os,4.0
1873,Sr4 Fe8 C24 N24,Sr4 Fe8 C24 N24,0.005491380000000046,Sr,Fe,Fe,4.0
1878,Ca4 Zn4 Co4 C24 N24,Ca4 Zn4 Co4 C24 N24,0.4185173499999999,Ca,Zn,Co,4.0
1888,Na4 Fe4 Os4 C24 N24,Na4 Fe4 Os4 C24 N24,0.12850119249999992,Na,Fe,Os,4.0