,Composition,Formula,e_above_hull,A_atom,P_atom,R_atom,n_A
0,Ca4 Fe4 Co4 C24 N24,Ca4 Fe4 Co4 C24 N24,0.43005815296044414,Ca,Fe,Co,4.0
1,Mg4 Cr4 Os4 C24 N24,Mg4 Cr4 Os4 C24 N24,0.3177883589128889,Mg,Cr,Os,4.0
2,Ca4 Mn4 Fe4 C24 N24,Ca4 Mn4 Fe4 C24 N24,0.38263205779377785,Ca,Fe,Mn,4.0
3,Ca4 Mn4 Os4 C24 N24,Ca4 Mn4 Os4 C24 N24,0.3039138833017798,Ca,Mn,Os,4.0
4,Li4 Cr8 C24 N24,Li4 Cr8 C24 N24,0.3150663552740003,Li,Cr,Cr,4.0
5,,,,,,,
6,Sr4 Cr4 Fe4 C24 N24,Sr4 Cr4 Fe4 C24 N24,0.3750295255715592,Sr,Fe,Cr,4.0
7,,,,,,,
8,Mg4 Mn4 V4 C24 N24,Mg4 Mn4 V4 C24 N24,0.4847944350715565,Mg,V,Mn,4.0
9,Li4 Fe4 Co4 C24 N24,Li4 Fe4 Co4 C24 N24,0.2640218829406713,Li,Co,Fe,4.0
10,,,,,,,
11,,,,,,,
12,Na4 Co4 Os4 C24 N24,Na4 Co4 Os4 C24 N24,0.14979719673822345,Na,Co,Os,4.0
13,Li4 Mn4 Cr4 C24 N24,Li4 Mn4 Cr4 C24 N24,0.3268177721073364,Li,Mn,Cr,4.0
14,,,,,,,
15,Ca4 Mn4 V4 C24 N24,Ca4 Mn4 V4 C24 N24,0.5105463184524446,Ca,Mn,V,4.0
16,Ca4 V4 Fe4 C24 N24,Ca4 V4 Fe4 C24 N24,0.5284017857937773,Ca,Fe,V,4.0
17,Na4 V4 Cr4 C24 N24,Na4 V4 Cr4 C24 N24,0.2858379305635559,Na,V,Cr,4.0
18,,,,,,,
19,Li4 Co4 Os4 C24 N24,Li4 Co4 Os4 C24 N24,0.1960258991153374,Li,Co,Os,4.0
20,K4 Co4 Os4 C24 N24,K4 Co4 Os4 C24 N24,0.09977124029377826,K,Co,Os,4.0
21,,,,,,,
22,,,,,,,
23,Na4 V4 Cr4 C24 N24,Na4 V4 Cr4 C24 N24,0.3258630757302221,Na,Cr,V,4.0
24,Li4 Cr4 Co4 C24 N24,Li4 Cr4 Co4 C24 N24,0.4008191726073376,Li,Co,Cr,4.0
25,Sr4 Zn4 Fe4 C24 N24,Sr4 Zn4 Fe4 C24 N24,0.2964269919802227,Sr,Zn,Fe,4.0
26,,,,,,,
27,K4 V4 Co4 C24 N24,K4 V4 Co4 C24 N24,0.1846953694524469,K,V,Co,4.0
28,Sr4 Cr4 Fe4 C24 N24,Sr4 Cr4 Fe4 C24 N24,0.2671984699048924,Sr,Cr,Fe,4.0
29,Mg4 Co4 Os4 C24 N24,Mg4 Co4 Os4 C24 N24,0.3983267250795564,Mg,Co,Os,4.0
30,Na4 Fe4 Co4 C24 N24,Na4 Fe4 Co4 C24 N24,0.19618745439688912,Na,Fe,Co,4.0
31,Mg4 Cr4 Fe4 C24 N24,Mg4 Cr4 Fe4 C24 N24,0.5205494829048884,Mg,Fe,Cr,4.0
32,,,,,,,
33,,,,,,,
34,,,,,,,
35,Mg4 Cr4 Co4 C24 N24,Mg4 Cr4 Co4 C24 N24,0.44431010073822375,Mg,Cr,Co,4.0
36,Na4 V8 C24 N24,Na4 V8 C24 N24,0.3883247735635536,Na,V,V,4.0
37,K4 Mn4 V4 C24 N24,K4 Mn4 V4 C24 N24,0.3116739666191126,K,Mn,V,4.0
38,Li4 Cr4 Fe4 C24 N24,Li4 Cr4 Fe4 C24 N24,0.3270730016073369,Li,Fe,Cr,4.0
39,Mg4 Fe4 Co4 C24 N24,Mg4 Fe4 Co4 C24 N24,0.4421409465715565,Mg,Fe,Co,4.0
40,Li4 V4 Co4 C24 N24,Li4 V4 Co4 C24 N24,0.4629633066073362,Li,Co,V,4.0
41,Ca4 Mn4 Co4 C24 N24,Ca4 Mn4 Co4 C24 N24,0.4293058714604463,Ca,Co,Mn,4.0
42,K4 V4 Os4 C24 N24,K4 V4 Os4 C24 N24,0.08973499662711326,K,V,Os,4.0
43,Li4 Mn4 Fe4 C24 N24,Li4 Mn4 Fe4 C24 N24,0.2992565657740052,Li,Fe,Mn,4.0
44,,,,,,,
45,Ca4 Zn4 Os4 C24 N24,Ca4 Zn4 Os4 C24 N24,0.31383429521044537,Ca,Zn,Os,4.0
46,Li4 V4 Fe4 C24 N24,Li4 V4 Fe4 C24 N24,0.4253237147740041,Li,Fe,V,4.0
47,,,,,,,
48,Ca4 V8 C24 N24,Ca4 V8 C24 N24,0.5487940156271129,Ca,V,V,4.0
49,Sr4 Zn4 Co4 C24 N24,Sr4 Zn4 Co4 C24 N24,0.4240756241468899,Sr,Zn,Co,4.0
50,Sr4 Mn4 V4 C24 N24,Sr4 Mn4 V4 C24 N24,0.434644857238224,Sr,Mn,V,4.0
51,Sr4 Mn4 Co4 C24 N24,Sr4 Mn4 Co4 C24 N24,0.3230088095715597,Sr,Mn,Co,4.0
52,,,,,,,
53,Ca4 Fe4 Co4 C24 N24,Ca4 Fe4 Co4 C24 N24,0.3928789396271109,Ca,Co,Fe,4.0
54,Na4 Cr4 Os4 C24 N24,Na4 Cr4 Os4 C24 N24,0.07449715957155689,Na,Cr,Os,4.0
55,,,,,,,
56,Sr4 V4 Cr4 C24 N24,Sr4 V4 Cr4 C24 N24,0.4389355085715554,Sr,Cr,V,4.0
57,K4 Cr4 Os4 C24 N24,K4 Cr4 Os4 C24 N24,0.025119948293777842,K,Cr,Os,4.0
58,K4 Fe4 Os4 C24 N24,K4 Fe4 Os4 C24 N24,0.0993908917937798,K,Fe,Os,4.0
59,,,,,,,
60,,,,,,,
61,,,,,,,
62,,,,,,,
63,K4 Mn4 Cr4 C24 N24,K4 Mn4 Cr4 C24 N24,0.2307250894524451,K,Mn,Cr,4.0
64,,,,,,,
65,K4 V4 Co4 C24 N24,K4 V4 Co4 C24 N24,0.3638912662857816,K,Co,V,4.0
66,Na4 Mn4 Fe4 C24 N24,Na4 Mn4 Fe4 C24 N24,0.1901598515635552,Na,Mn,Fe,4.0
67,,,,,,,
68,Na4 Mn4 Os4 C24 N24,Na4 Mn4 Os4 C24 N24,0.11705639640489095,Na,Mn,Os,4.0
69,Ca4 Zn4 Cr4 C24 N24,Ca4 Zn4 Cr4 C24 N24,0.5331443703691114,Ca,Zn,Cr,4.0
70,K4 Cr4 Fe4 C24 N24,K4 Cr4 Fe4 C24 N24,0.09221554845244384,K,Cr,Fe,4.0
71,Li4 Mn4 V4 C24 N24,Li4 Mn4 V4 C24 N24,0.28938558260733593,Li,V,Mn,4.0
72,Mg4 Zn4 Os4 C24 N24,Mg4 Zn4 Os4 C24 N24,0.4867180564882237,Mg,Zn,Os,4.0
73,Mg4 V4 Fe4 C24 N24,Mg4 V4 Fe4 C24 N24,0.3764012306906661,Mg,V,Fe,4.0
74,Sr4 V4 Fe4 C24 N24,Sr4 V4 Fe4 C24 N24,0.2825439945715562,Sr,V,Fe,4.0
75,Na4 V4 Zn4 C24 N24,Na4 V4 Zn4 C24 N24,0.4698987834722237,Na,Zn,V,4.0
76,,,,,,,
77,Sr4 V4 Co4 C24 N24,Sr4 V4 Co4 C24 N24,0.4075575917382235,Sr,V,Co,4.0
78,Mg4 V4 Cr4 C24 N24,Mg4 V4 Cr4 C24 N24,0.5682652244048914,Mg,Cr,V,4.0
79,,,,,,,
80,Mg4 Fe4 Os4 C24 N24,Mg4 Fe4 Os4 C24 N24,0.3836765414128909,Mg,Fe,Os,4.0
81,,,,,,,
82,Sr4 Mn4 Cr4 C24 N24,Sr4 Mn4 Cr4 C24 N24,0.2438182295715592,Sr,Cr,Mn,4.0
83,Mg4 Mn4 Fe4 C24 N24,Mg4 Mn4 Fe4 C24 N24,0.43439062640488935,Mg,Mn,Fe,4.0
84,Li4 Mn8 C24 N24,Li4 Mn8 C24 N24,0.2744810997740021,Li,Mn,Mn,4.0
85,Ca4 Cr4 Co4 C24 N24,Ca4 Cr4 Co4 C24 N24,0.512853549960445,Ca,Co,Cr,4.0
86,,,,,,,
87,,,,,,,
88,,,,,,,
89,Mg4 Mn4 V4 C24 N24,Mg4 Mn4 V4 C24 N24,0.6048260770715572,Mg,Mn,V,4.0
90,Na4 Cr4 Fe4 C24 N24,Na4 Cr4 Fe4 C24 N24,0.13993607039688882,Na,Cr,Fe,4.0
91,K4 Fe4 Co4 C24 N24,K4 Fe4 Co4 C24 N24,0.17434748061911165,K,Co,Fe,4.0
92,,,,,,,
93,Li4 V4 Os4 C24 N24,Li4 V4 Os4 C24 N24,0.17789649644866934,Li,V,Os,4.0
94,K4 Cr4 Fe4 C24 N24,K4 Cr4 Fe4 C24 N24,0.2318674186191121,K,Fe,Cr,4.0
95,,,,,,,
96,Mg4 V4 Co4 C24 N24,Mg4 V4 Co4 C24 N24,0.4723125060715558,Mg,V,Co,4.0
97,Li4 Mn4 Co4 C24 N24,Li4 Mn4 Co4 C24 N24,0.3517873667740039,Li,Co,Mn,4.0
98,,,,,,,
99,K4 Zn4 Fe4 C24 N24,K4 Zn4 Fe4 C24 N24,0.26002363769444514,K,Zn,Fe,4.0
100,,,,,,,
101,K4 V4 Zn4 C24 N24,K4 V4 Zn4 C24 N24,0.4237809698611139,K,Zn,V,4.0
102,Mg4 Zn4 Cr4 C24 N24,Mg4 Zn4 Cr4 C24 N24,0.596209968146888,Mg,Zn,Cr,4.0
103,,,,,,,
104,Li2 Zn4 Co4 C24 N24,Li2 Zn4 Co4 C24 N24,0.3278229947189635,Li,Zn,Co,2.0
105,Mg2 Cr4 Os4 C24 N24,Mg2 Cr4 Os4 C24 N24,0.2041278326480445,Mg,Cr,Os,2.0
106,Sr2 Fe4 Co4 C24 N24,Sr2 Fe4 Co4 C24 N24,0.22810726574321905,Sr,Co,Fe,2.0
107,Mg2 V4 Co4 C24 N24,Mg2 V4 Co4 C24 N24,0.5407168897087349,Mg,Co,V,2.0
108,Na2 Mn8 C24 N24,Na2 Mn8 C24 N24,0.2273471273770138,Na,Mn,Mn,2.0
109,,,,,,,
110,Li2 Mn4 Cr4 C24 N24,Li2 Mn4 Cr4 C24 N24,0.3004014741237899,Li,Mn,Cr,2.0
111,Sr2 Co4 Os4 C24 N24,Sr2 Co4 Os4 C24 N24,0.16265580799287171,Sr,Co,Os,2.0
112,K2 Mn4 V4 C24 N24,K2 Mn4 V4 C24 N24,0.3327418599919554,K,Mn,V,2.0
113,K2 Cr4 Fe4 C24 N24,K2 Cr4 Fe4 C24 N24,0.2648799029229867,K,Fe,Cr,2.0
114,Na2 Mn4 V4 C24 N24,Na2 Mn4 V4 C24 N24,0.3582865541011486,Na,Mn,V,2.0
115,Mg2 Mn4 Co4 C24 N24,Mg2 Mn4 Co4 C24 N24,0.3377482300535615,Mg,Mn,Co,2.0
116,Ca2 Mn4 Os4 C24 N24,Ca2 Mn4 Os4 C24 N24,0.18051470276298787,Ca,Mn,Os,2.0
117,Li2 Zn4 Os4 C24 N24,Li2 Zn4 Os4 C24 N24,0.3181779336927564,Li,Zn,Os,2.0
118,,,,,,,
119,K2 Mn8 C24 N24,K2 Mn8 C24 N24,0.20306153102644053,K,Mn,Mn,2.0
120,Mg2 V8 C24 N24,Mg2 V8 C24 N24,0.5227407314328758,Mg,V,V,2.0
121,,,,,,,
122,K2 Fe4 Os4 C24 N24,K2 Fe4 Os4 C24 N24,0.12761132258643748,K,Fe,Os,2.0
123,Sr2 V4 Cr4 C24 N24,Sr2 V4 Cr4 C24 N24,0.3114396798811505,Sr,V,Cr,2.0
124,Ca2 Mn8 C24 N24,Ca2 Mn8 C24 N24,0.2933130680995397,Ca,Mn,Mn,2.0
125,Li2 Zn4 Cr4 C24 N24,Li2 Zn4 Cr4 C24 N24,0.4274773164431016,Li,Zn,Cr,2.0
126,,,,,,,
127,Ca2 Fe8 C24 N24,Ca2 Fe8 C24 N24,0.2735384043064375,Ca,Fe,Fe,2.0
128,,,,,,,
129,Li2 Cr4 Co4 C24 N24,Li2 Cr4 Co4 C24 N24,0.3480312706755129,Li,Co,Cr,2.0
130,Mg2 Fe4 Co4 C24 N24,Mg2 Fe4 Co4 C24 N24,0.3217451860880445,Mg,Fe,Co,2.0
131,Sr2 V4 Fe4 C24 N24,Sr2 V4 Fe4 C24 N24,0.22106508953632087,Sr,V,Fe,2.0
132,Sr2 Cr4 Co4 C24 N24,Sr2 Cr4 Co4 C24 N24,0.3669062852259781,Sr,Co,Cr,2.0
133,K2 Cr4 Os4 C24 N24,K2 Cr4 Os4 C24 N24,0.05204998448298959,K,Cr,Os,2.0
134,Ca2 Cr8 C24 N24,Ca2 Cr8 C24 N24,0.3319159694788514,Ca,Cr,Cr,2.0
135,Sr2 Mn4 V4 C24 N24,Sr2 Mn4 V4 C24 N24,0.2578140955708026,Sr,V,Mn,2.0
136,,,,,,,
137,Na2 V4 Co4 C24 N24,Na2 V4 Co4 C24 N24,0.2063453880666657,Na,V,Co,2.0
138,Mg2 Cr4 Co4 C24 N24,Mg2 Cr4 Co4 C24 N24,0.28992462815701003,Mg,Cr,Co,2.0
139,,,,,,,
140,Mg2 Cr4 Fe4 C24 N24,Mg2 Cr4 Fe4 C24 N24,0.2777652695363209,Mg,Cr,Fe,2.0
141,Sr2 Fe8 C24 N24,Sr2 Fe8 C24 N24,0.2276769472949418,Sr,Fe,Fe,2.0
142,Mg2 Mn4 Fe4 C24 N24,Mg2 Mn4 Fe4 C24 N24,0.30710363815701136,Mg,Mn,Fe,2.0
143,Sr2 Mn4 Fe4 C24 N24,Sr2 Mn4 Fe4 C24 N24,0.20197146298459856,Sr,Mn,Fe,2.0
144,Li2 V4 Cr4 C24 N24,Li2 V4 Cr4 C24 N24,0.35339581636517003,Li,Cr,V,2.0
145,,,,,,,
146,,,,,,,
147,,,,,,,
148,Mg2 Co4 Os4 C24 N24,Mg2 Co4 Os4 C24 N24,0.2911072779928752,Mg,Co,Os,2.0
149,Mg2 V4 Cr4 C24 N24,Mg2 V4 Cr4 C24 N24,0.4536617126397697,Mg,Cr,V,2.0
150,Mg2 V4 Cr4 C24 N24,Mg2 V4 Cr4 C24 N24,0.4185599288466655,Mg,V,Cr,2.0
151,Na2 V4 Fe4 C24 N24,Na2 V4 Fe4 C24 N24,0.3850135237563226,Na,Fe,V,2.0
152,K2 Mn4 Zn4 C24 N24,K2 Mn4 Zn4 C24 N24,0.32911054386298666,K,Zn,Mn,2.0
153,Ca2 Cr4 Co4 C24 N24,Ca2 Cr4 Co4 C24 N24,0.3823237291462061,Ca,Co,Cr,2.0
154,Sr2 V4 Cr4 C24 N24,Sr2 V4 Cr4 C24 N24,0.35006211712252977,Sr,Cr,V,2.0
155,Sr2 Mn4 Cr4 C24 N24,Sr2 Mn4 Cr4 C24 N24,0.2958455555708053,Sr,Mn,Cr,2.0
156,,,,,,,
157,,,,,,,
158,,,,,,,
159,,,,,,,
160,Li2 Fe4 Co4 C24 N24,Li2 Fe4 Co4 C24 N24,0.2253093103306867,Li,Fe,Co,2.0
161,,,,,,,
162,,,,,,,
163,,,,,,,
164,K2 V4 Cr4 C24 N24,K2 V4 Cr4 C24 N24,0.30129373154367656,K,Cr,V,2.0
165,Na2 V4 Co4 C24 N24,Na2 V4 Co4 C24 N24,0.4142873306528738,Na,Co,V,2.0
166,,,,,,,
167,Sr2 Mn4 Cr4 C24 N24,Sr2 Mn4 Cr4 C24 N24,0.22082712488115064,Sr,Cr,Mn,2.0
168,,,,,,,
169,Li2 Cr8 C24 N24,Li2 Cr8 C24 N24,0.26763373015827696,Li,Cr,Cr,2.0
170,K2 Fe8 C24 N24,K2 Fe8 C24 N24,0.20576344464712906,K,Fe,Fe,2.0
171,K2 Mn4 Fe4 C24 N24,K2 Mn4 Fe4 C24 N24,0.1600846386126431,K,Mn,Fe,2.0
172,K2 Co4 Os4 C24 N24,K2 Co4 Os4 C24 N24,0.1437073406898861,K,Co,Os,2.0
173,,,,,,,
174,Li2 Mn4 Co4 C24 N24,Li2 Mn4 Co4 C24 N24,0.2358819968824104,Li,Mn,Co,2.0
175,Li2 Mn4 Fe4 C24 N24,Li2 Mn4 Fe4 C24 N24,0.20833847808930628,Li,Mn,Fe,2.0
176,Sr2 V4 Co4 C24 N24,Sr2 V4 Co4 C24 N24,0.43933751643287344,Sr,Co,V,2.0
177,Ca2 Cr4 Fe4 C24 N24,Ca2 Cr4 Fe4 C24 N24,0.20555469499609025,Ca,Cr,Fe,2.0
178,,,,,,,
179,Mg2 Mn4 V4 C24 N24,Mg2 Mn4 V4 C24 N24,0.3579224265970105,Mg,V,Mn,2.0
180,Li2 Cr4 Os4 C24 N24,Li2 Cr4 Os4 C24 N24,0.10273790413206464,Li,Cr,Os,2.0
181,K2 Mn4 Os4 C24 N24,K2 Mn4 Os4 C24 N24,0.08228765413816141,K,Mn,Os,2.0
182,Ca2 V4 Cr4 C24 N24,Ca2 V4 Cr4 C24 N24,0.3994392074098858,Ca,Cr,V,2.0
183,,Ca2 Mn4 Zn4 C24 N24,0.40711693490160883,Ca,Zn,Mn,2.0
184,,,,,,,
185,,,,,,,
186,Mg2 Mn4 Os4 C24 N24,Mg2 Mn4 Os4 C24 N24,0.2321098331652873,Mg,Mn,Os,2.0
187,Sr2 V8 C24 N24,Sr2 V8 C24 N24,0.4170778676397706,Sr,V,V,2.0
188,Sr2 Fe4 Co4 C24 N24,Sr2 Fe4 Co4 C24 N24,0.20842404574321804,Sr,Fe,Co,2.0
189,Na2 Mn4 Fe4 C24 N24,Na2 Mn4 Fe4 C24 N24,0.18378237789425167,Na,Mn,Fe,2.0
190,,,,,,,
191,,K2 V4 Cr4 C24 N24,0.2541653624057467,K,V,Cr,2.0
192,Mg2 Fe4 Co4 C24 N24,Mg2 Fe4 Co4 C24 N24,0.3570524940190793,Mg,Co,Fe,2.0
193,Mg2 Fe8 C24 N24,Mg2 Fe8 C24 N24,0.3476269014328732,Mg,Fe,Fe,2.0
194,Na2 Zn4 Co4 C24 N24,Na2 Zn4 Co4 C24 N24,0.3031470229721833,Na,Zn,Co,2.0
195,Ca2 Cr4 Os4 C24 N24,Ca2 Cr4 Os4 C24 N24,0.13642798207333404,Ca,Cr,Os,2.0
196,Sr2 Zn4 Os4 C24 N24,Sr2 Zn4 Os4 C24 N24,0.2774111099673551,Sr,Zn,Os,2.0
197,Na2 Cr4 Fe4 C24 N24,Na2 Cr4 Fe4 C24 N24,0.15466698858390693,Na,Cr,Fe,2.0
198,Sr2 V4 Fe4 C24 N24,Sr2 V4 Fe4 C24 N24,0.4017809916052872,Sr,Fe,V,2.0
199,Na2 Mn4 Co4 C24 N24,Na2 Mn4 Co4 C24 N24,0.3069566009977009,Na,Co,Mn,2.0
200,,,,,,,
201,Mg2 Mn4 Zn4 C24 N24,Mg2 Mn4 Zn4 C24 N24,0.4810659882349437,Mg,Zn,Mn,2.0
202,,,,,,,
203,,,,,,,
204,Ca2 Fe4 Co4 C24 N24,Ca2 Fe4 Co4 C24 N24,0.2537019562029883,Ca,Fe,Co,2.0
205,Li2 Fe8 C24 N24,Li2 Fe8 C24 N24,0.25528163033069085,Li,Fe,Fe,2.0
206,K2 V4 Co4 C24 N24,K2 V4 Co4 C24 N24,0.3879635627505742,K,Co,V,2.0
207,K2 Cr4 Fe4 C24 N24,K2 Cr4 Fe4 C24 N24,0.13055525757816078,K,Cr,Fe,2.0
208,Na2 V4 Fe4 C24 N24,Na2 V4 Fe4 C24 N24,0.20460153237701206,Na,V,Fe,2.0
209,Sr2 Mn4 Co4 C24 N24,Sr2 Mn4 Co4 C24 N24,0.2458501778121853,Sr,Mn,Co,2.0
210,K2 Fe4 Co4 C24 N24,K2 Fe4 Co4 C24 N24,0.17784943499195371,K,Fe,Co,2.0
211,,,,,,,
212,Li2 V4 Fe4 C24 N24,Li2 V4 Fe4 C24 N24,0.20548492477034586,Li,V,Fe,2.0
213,Mg2 Mn4 V4 C24 N24,Mg2 Mn4 V4 C24 N24,0.484042784881149,Mg,Mn,V,2.0
214,K2 V4 Co4 C24 N24,K2 V4 Co4 C24 N24,0.1819866136126436,K,V,Co,2.0
215,,Ca2 Mn4 V4 C24 N24,0.4346847348236782,Ca,Mn,V,2.0
216,,,,,,,
217,Mg2 V4 Co4 C24 N24,Mg2 V4 Co4 C24 N24,0.33286571195011483,Mg,V,Co,2.0
218,Sr2 Fe4 Os4 C24 N24,Sr2 Fe4 Os4 C24 N24,0.15813771385494135,Sr,Fe,Os,2.0
219,,,,,,,
220,Li2 Mn4 Fe4 C24 N24,Li2 Mn4 Fe4 C24 N24,0.28108370964103097,Li,Fe,Mn,2.0
221,Na2 Fe8 C24 N24,Na2 Fe8 C24 N24,0.2294062928942555,Na,Fe,Fe,2.0
222,,,,,,,
223,,,,,,,
224,,,,,,,
225,Na2 V8 C24 N24,Na2 V8 C24 N24,0.3963147423770117,Na,V,V,2.0
226,Sr2 V4 Os4 C24 N24,Sr2 V4 Os4 C24 N24,0.1499217614411492,Sr,V,Os,2.0
227,,,,,,,
228,,,,,,,
229,Li2 Mn4 Os4 C24 N24,Li2 Mn4 Os4 C24 N24,0.13264919344240944,Li,Mn,Os,2.0
230,,,,,,,
231,,,,,,,
232,,,,,,,
233,,,,,,,
234,K2 Cr4 Co4 C24 N24,K2 Cr4 Co4 C24 N24,0.14616255481953822,K,Cr,Co,2.0
235,Ca2 Zn4 Cr4 C24 N24,Ca2 Zn4 Cr4 C24 N24,0.4220448019705732,Ca,Zn,Cr,2.0
236,Ca2 Mn4 Zn4 C24 N24,Ca2 Mn4 Zn4 C24 N24,0.4071169349016088,Ca,Zn,Mn,2.0
237,,,,,,,
238,Li2 Co4 Os4 C24 N24,Li2 Co4 Os4 C24 N24,0.19452344706309788,Li,Co,Os,2.0
239,Na2 V4 Cr4 C24 N24,Na2 V4 Cr4 C24 N24,0.3281960530666659,Na,Cr,V,2.0
240,,,,,,,
241,Mg2 Mn4 Cr4 C24 N24,Mg2 Mn4 Cr4 C24 N24,0.3353987133294236,Mg,Cr,Mn,2.0
242,,,,,,,
243,,,,,,,
244,Sr2 Mn4 Fe4 C24 N24,Sr2 Mn4 Fe4 C24 N24,0.2671353790190807,Sr,Fe,Mn,2.0
245,Na2 Cr4 Co4 C24 N24,Na2 Cr4 Co4 C24 N24,0.17058711082528433,Na,Cr,Co,2.0
246,,,,,,,
247,,,,,,,
248,Ca2 Mn4 V4 C24 N24,Ca2 Mn4 V4 C24 N24,0.4346847348236782,Ca,Mn,V,2.0
249,,,,,,,
250,,,,,,,
251,Sr2 Co8 C24 N24,Sr2 Co8 C24 N24,0.26183067005356264,Sr,Co,Co,2.0
252,,,,,,,
253,K2 Mn4 V4 C24 N24,K2 Mn4 V4 C24 N24,0.2231724855091972,K,V,Mn,2.0
254,,,,,,,
255,Li2 Mn8 C24 N24,Li2 Mn8 C24 N24,0.2522105342962089,Li,Mn,Mn,2.0
256,,,,,,,
257,Mg2 Fe4 Os4 C24 N24,Mg2 Fe4 Os4 C24 N24,0.2746275357514936,Mg,Fe,Os,2.0
258,Li2 V4 Zn4 C24 N24,Li2 V4 Zn4 C24 N24,0.5266698628224118,Li,Zn,V,2.0
259,Sr2 Mn4 Zn4 C24 N24,Sr2 Mn4 Zn4 C24 N24,0.35807087357977,Sr,Zn,Mn,2.0
260,Ca2 Mn4 Cr4 C24 N24,Ca2 Mn4 Cr4 C24 N24,0.26989619706505685,Ca,Cr,Mn,2.0
261,K2 V4 Fe4 C24 N24,K2 V4 Fe4 C24 N24,0.35984089275057585,K,Fe,V,2.0
262,Ca2 Mn4 Co4 C24 N24,Ca2 Mn4 Co4 C24 N24,0.3658977824098848,Ca,Co,Mn,2.0
263,,Li2 Cr4 Fe4 C24 N24,0.17937248205482348,Li,Cr,Fe,2.0
264,Mg2 V4 Os4 C24 N24,Mg2 V4 Os4 C24 N24,0.20921223814068848,Mg,V,Os,2.0
265,,,,,,,
266,Li2 Mn4 Cr4 C24 N24,Li2 Mn4 Cr4 C24 N24,0.2348828506755148,Li,Cr,Mn,2.0
267,Mg2 V4 Fe4 C24 N24,Mg2 V4 Fe4 C24 N24,0.3314632659156338,Mg,V,Fe,2.0
268,Ca2 Zn4 Os4 C24 N24,Ca2 Zn4 Os4 C24 N24,0.32496626042712684,Ca,Zn,Os,2.0
269,,,,,,,
270,,,,,,,
271,,,,,,,
272,,,,,,,
273,Sr2 V4 Zn4 C24 N24,Sr2 V4 Zn4 C24 N24,0.5026719168556308,Sr,Zn,V,2.0
274,Ca2 Cr4 Co4 C24 N24,Ca2 Cr4 Co4 C24 N24,0.2821505532719541,Ca,Cr,Co,2.0
275,,,,,,,
276,,,,,,,
277,,,,,,,
278,Li2 Zn4 Fe4 C24 N24,Li2 Zn4 Fe4 C24 N24,0.3798141957534461,Li,Zn,Fe,2.0
279,,,,,,,
280,,,,,,,
281,K2 Mn4 Cr4 C24 N24,K2 Mn4 Cr4 C24 N24,0.25061373878505755,K,Mn,Cr,2.0
282,Sr2 Mn4 V4 C24 N24,Sr2 Mn4 V4 C24 N24,0.3863995398811486,Sr,Mn,V,2.0
283,,,,,,,
284,K2 V4 Cr4 C24 N24,K2 V4 Cr4 C24 N24,0.2541653624057467,K,V,Cr,2.0
285,Ca2 Mn4 Co4 C24 N24,Ca2 Mn4 Co4 C24 N24,0.2908132339616092,Ca,Mn,Co,2.0
286,,,,,,,
287,Sr2 Mn4 Os4 C24 N24,Sr2 Mn4 Os4 C24 N24,0.13193479454459478,Sr,Mn,Os,2.0
288,,,,,,,
289,,,,,,,
290,Na2 Zn4 Os4 C24 N24,Na2 Zn4 Os4 C24 N24,0.29245002194597713,Na,Zn,Os,2.0
291,Sr2 Cr4 Os4 C24 N24,Sr2 Cr4 Os4 C24 N24,0.08716707144114544,Sr,Cr,Os,2.0
292,Na2 Fe4 Os4 C24 N24,Na2 Fe4 Os4 C24 N24,0.13415078287379245,Na,Fe,Os,2.0
293,Na2 Mn4 Cr4 C24 N24,Na2 Mn4 Cr4 C24 N24,0.19949414121126446,Na,Mn,Cr,2.0
294,Li2 V4 Co4 C24 N24,Li2 V4 Co4 C24 N24,0.2318866273996533,Li,V,Co,2.0
295,,,,,,,
296,,,,,,,
297,Mg2 Mn4 Fe4 C24 N24,Mg2 Mn4 Fe4 C24 N24,0.3807340843639064,Mg,Fe,Mn,2.0
298,Sr2 Cr4 Fe4 C24 N24,Sr2 Cr4 Fe4 C24 N24,0.2963312322949445,Sr,Fe,Cr,2.0
299,,,,,,,
300,K2 Mn4 Cr4 C24 N24,K2 Mn4 Cr4 C24 N24,0.18308700792298715,K,Cr,Mn,2.0
301,Na2 Fe4 Co4 C24 N24,Na2 Fe4 Co4 C24 N24,0.23999513289425245,Na,Co,Fe,2.0
302,,,,,,,
303,,,,,,,
304,K2 V8 C24 N24,K2 V8 C24 N24,0.3681116774057481,K,V,V,2.0
305,K2 Mn4 Fe4 C24 N24,K2 Mn4 Fe4 C24 N24,0.2323708286126429,K,Fe,Mn,2.0
306,Li2 V4 Cr4 C24 N24,Li2 V4 Cr4 C24 N24,0.3039431739513763,Li,V,Cr,2.0
307,,,,,,,
308,Mg2 Zn4 Os4 C24 N24,Mg2 Zn4 Os4 C24 N24,0.4098636272087353,Mg,Zn,Os,2.0
309,,,,,,,
310,,,,,,,
311,,,,,,,
312,Ca2 V4 Co4 C24 N24,Ca2 V4 Co4 C24 N24,0.4873309951685041,Ca,Co,V,2.0
313,Mg2 V4 Fe4 C24 N24,Mg2 V4 Fe4 C24 N24,0.5107114750535633,Mg,Fe,V,2.0
314,,,,,,,
315,,,,,,,
316,Na2 Mn4 Cr4 C24 N24,Na2 Mn4 Cr4 C24 N24,0.20780143823907693,Na,Cr,Mn,2.0
317,K2 Zn4 Fe4 C24 N24,K2 Zn4 Fe4 C24 N24,0.3295536188629873,K,Zn,Fe,2.0
318,Ca2 Mn4 Cr4 C24 N24,Ca2 Mn4 Cr4 C24 N24,0.3435951124098846,Ca,Mn,Cr,2.0
319,,,,,,,
320,,,,,,,
321,,,,,,,
322,,,,,,,
323,Sr2 V4 Co4 C24 N24,Sr2 V4 Co4 C24 N24,0.2479524140190801,Sr,V,Co,2.0
324,Li2 Cr4 Fe4 C24 N24,Li2 Cr4 Fe4 C24 N24,0.3149908829168933,Li,Fe,Cr,2.0
325,Ca2 Co4 Os4 C24 N24,Ca2 Co4 Os4 C24 N24,0.21098478017678168,Ca,Co,Os,2.0
326,,,,,,,
327,Sr2 Cr8 C24 N24,Sr2 Cr8 C24 N24,0.2818773040190816,Sr,Cr,Cr,2.0
328,,,,,,,
329,,,,,,,
330,Li2 Fe4 Os4 C24 N24,Li2 Fe4 Os4 C24 N24,0.1774698601665481,Li,Fe,Os,2.0
331,,,,,,,
332,,,,,,,
333,Na2 Co4 Os4 C24 N24,Na2 Co4 Os4 C24 N24,0.15340850942551576,Na,Co,Os,2.0
334,Ca2 Fe4 Co4 C24 N24,Ca2 Fe4 Co4 C24 N24,0.27464642137540274,Ca,Co,Fe,2.0
335,Li2 Mn4 V4 C24 N24,Li2 Mn4 V4 C24 N24,0.3830708087789621,Li,Mn,V,2.0
336,Na2 Mn4 Fe4 C24 N24,Na2 Mn4 Fe4 C24 N24,0.2568082787563206,Na,Fe,Mn,2.0
337,,,,,,,
338,,,,,,,
339,,,,,,,
340,,,,,,,
341,,,,,,,
342,K2 Co8 C24 N24,K2 Co8 C24 N24,0.1983724970609213,K,Co,Co,2.0
343,,,,,,,
344,,,,,,,
345,,,,,,,
346,,,,,,,
347,,,,,,,
348,Na2 V4 Zn4 C24 N24,Na2 V4 Zn4 C24 N24,0.5042339550411485,Na,Zn,V,2.0
349,,,,,,,
350,,,,,,,
351,K2 Cr8 C24 N24,K2 Cr8 C24 N24,0.21711724964712786,K,Cr,Cr,2.0
352,,,,,,,
353,,,,,,,
354,Ca2 V4 Fe4 C24 N24,Ca2 V4 Fe4 C24 N24,0.4488439739616101,Ca,Fe,V,2.0
355,,Mg2 Cr4 Co4 C24 N24,0.4509258257432158,Mg,Co,Cr,2.0
356,Sr2 Zn4 Cr4 C24 N24,Sr2 Zn4 Cr4 C24 N24,0.3767827216832167,Sr,Zn,Cr,2.0
357,Ca2 V4 Os4 C24 N24,Ca2 V4 Os4 C24 N24,0.0,Ca,V,Os,2.0
358,,,,,,,
359,,,,,,,
360,,,,,,,
361,,,,,,,
362,,,,,,,
363,Mg2 Zn4 Co4 C24 N24,Mg2 Zn4 Co4 C24 N24,0.3917280868556325,Mg,Zn,Co,2.0
364,,Na2 Zn4 Cr4 C24 N24,0.4021772665928722,Na,Zn,Cr,2.0
365,,Li2 V4 Co4 C24 N24,0.4378058851582729,Li,Co,V,2.0
366,,Mg2 V4 Zn4 C24 N24,0.6291576399590806,Mg,Zn,V,2.0
367,,,,,,,
368,,K2 V4 Os4 C24 N24,0.0975465094829886,K,V,Os,2.0
369,,,,,,,
370,,,,,,,
371,,,,,,,
372,,,,,,,
373,,,,,,,
374,,Na2 Cr4 Os4 C24 N24,0.07768963910942439,Na,Cr,Os,2.0
375,,,,,,,
376,,,,,,,
377,,Mg2 Co8 C24 N24,0.3499028864328739,Mg,Co,Co,2.0
378,,,,,,,
379,,,,,,,
380,,,,,,,
381,,Na2 Cr8 C24 N24,0.2440903923770125,Na,Cr,Cr,2.0
382,,,,,,,
383,,Ca2 Mn4 V4 C24 N24,0.31081144154781626,Ca,V,Mn,2.0
384,,Li2 V4 Fe4 C24 N24,0.4115798494686196,Li,Fe,V,2.0
385,,,,,,,
386,,,,,,,
387,,,,,,,
388,,,,,,,
389,,Li2 Cr4 Fe4 C24 N24,0.17937248205482348,Li,Cr,Fe,2.0
390,,,,,,,
391,,,,,,,
392,,,,,,,
393,,Mg2 Cr8 C24 N24,0.3685631179845963,Mg,Cr,Cr,2.0
394,,K2 Fe4 Co4 C24 N24,0.2167374868885048,K,Co,Fe,2.0
395,,Na2 V4 Cr4 C24 N24,0.28768619030804565,Na,V,Cr,2.0
396,,,,,,,
397,,,,,,,
398,,,,,,,
399,,,,,,,
400,,,,,,,
401,,,,,,,
402,,K2 Zn4 Os4 C24 N24,0.26595017266437004,K,Zn,Os,2.0
403,,,,,,,
404,,,,,,,
405,,Li2 V8 C24 N24,0.4229758563651736,Li,V,V,2.0
406,,,,,,,
407,,,,,,,
408,,,,,,,
409,,Sr2 Mn8 C24 N24,0.2403692317777022,Sr,Mn,Mn,2.0
410,,,,,,,
411,,,,,,,
412,,Ca2 Fe4 Os4 C24 N24,0.2053739725905732,Ca,Fe,Os,2.0
413,,,,,,,
414,,,,,,,
415,,Na2 Cr4 Fe4 C24 N24,0.2895445073770109,Na,Fe,Cr,2.0
416,,Ca2 Cr4 Fe4 C24 N24,0.34291720206505616,Ca,Fe,Cr,2.0
417,,Mg2 Cr4 Fe4 C24 N24,0.4118594697087357,Mg,Fe,Cr,2.0
418,,,,,,,
419,,,,,,,
420,,,,,,,
421,,,,,,,
422,,,,,,,
423,,Na2 Fe4 Co4 C24 N24,0.20143176117011485,Na,Fe,Co,2.0
424,,,,,,,
425,,,,,,,
426,,,,,,,
427,,,,,,,
428,,Na2 Mn4 Os4 C24 N24,0.10761376548873614,Na,Mn,Os,2.0
429,,,,,,,
430,,,,,,,
431,,,,,,,
432,,,,,,,
433,,,,,,,
434,,,,,,,