,Composition,Formula,e_above_hull,A_atom,P_atom,R_atom,n_A
1068,,Rb1 Mn4 Cr4 C24 N24,0.19456266559754987,Rb,Cr,Mn,1.0
1069,,Rb1 Mn4 Fe4 C24 N24,0.2508356412115855,Rb,Fe,Mn,1.0
1070,,Rb8 Cr8 C24 N24,0.13518267736979084,Rb,Cr,Cr,8.0
1071,,Rb8 Fe4 Co4 C24 N24,0.17615798860677054,Rb,Fe,Co,8.0
1072,,Rb1 Co4 Os4 C24 N24,0.16616059946561812,Rb,Co,Os,1.0
1073,,Rb1 Zn4 Os4 C24 N24,0.29851618059754514,Rb,Zn,Os,1.0
1074,,Rb1 V4 Os4 C24 N24,0.11026280648316167,Rb,V,Os,1.0
1075,,Rb8 V4 Cr4 C24 N24,0.2230873229947914,Rb,Cr,V,8.0
1076,,Rb8 V4 Co4 C24 N24,0.2134808962630208,Rb,V,Co,8.0
1077,,Rb8 Cr4 Co4 C24 N24,0.21345915782552005,Rb,Co,Cr,8.0
1078,,Rb1 V4 Co4 C24 N24,0.4035540077028124,Rb,Co,V,1.0
1079,,Rb8 V4 Co4 C24 N24,0.3003523084505204,Rb,Co,V,8.0
1080,,Rb1 Cr4 Os4 C24 N24,0.06945995893930322,Rb,Cr,Os,1.0
1081,,Rb1 Mn4 Zn4 C24 N24,0.3508695658522853,Rb,Zn,Mn,1.0
1082,,,,,,,
1083,,Rb8 Mn4 Fe4 C24 N24,0.07469867705729173,Rb,Mn,Fe,8.0
1084,,Rb8 Fe4 Co4 C24 N24,0.12365287798177073,Rb,Co,Fe,8.0
1085,,,,,,,
1086,,Rb8 V8 C24 N24,0.2289584220572927,Rb,V,V,8.0
1087,,Rb8 Co8 C24 N24,0.18305643921874906,Rb,Co,Co,8.0
1088,,,,,,,
1089,,Rb1 Cr4 Co4 C24 N24,0.01767124962023381,Rb,Cr,Co,1.0
1090,,Rb1 Mn8 C24 N24,0.21512928963263,Rb,Mn,Mn,1.0
1091,,Rb8 Zn4 Cr4 C24 N24,0.18699078089843724,Rb,Zn,Cr,8.0
1092,,Rb1 Mn4 V4 C24 N24,0.34479747805369065,Rb,Mn,V,1.0
1093,,Rb1 V4 Cr4 C24 N24,0.2980275489308841,Rb,V,Cr,1.0
1094,,Rb1 Fe8 C24 N24,0.2272036401589457,Rb,Fe,Fe,1.0
1095,,Rb1 Cr8 C24 N24,0.21611622419403176,Rb,Cr,Cr,1.0
1096,,Rb8 Cr4 Co4 C24 N24,0.18310322501302068,Rb,Cr,Co,8.0
1097,,Rb7 Cr8 C24 N24,0.15940355461970768,Rb,Cr,Cr,7.0
1098,,Rb1 Fe4 Os4 C24 N24,0.14694684367614566,Rb,Fe,Os,1.0
1099,,Rb7 Cr4 Os4 C24 N24,0.037778302860450814,Rb,Cr,Os,7.0
1100,,Rb7 V4 Fe4 C24 N24,0.0976778000165357,Rb,V,Fe,7.0
1101,,Rb1 V4 Zn4 C24 N24,0.5053193067294774,Rb,Zn,V,1.0
1102,,Rb7 Fe4 Os4 C24 N24,0.04348980159061,Rb,Fe,Os,7.0
1103,,Rb1 V8 C24 N24,0.3853235270010522,Rb,V,V,1.0
1104,,Rb1 Zn4 Co4 C24 N24,0.3271193937470196,Rb,Zn,Co,1.0
1105,,Rb1 V4 Co4 C24 N24,0.18740772489579527,Rb,V,Co,1.0
1106,,Rb1 Mn4 V4 C24 N24,0.22956414594842836,Rb,V,Mn,1.0
1107,,Rb1 Mn4 Co4 C24 N24,0.1915564803343912,Rb,Mn,Co,1.0
1108,,Rb1 Cr4 Co4 C24 N24,0.298354740509831,Rb,Co,Cr,1.0
1109,,Rb7 Mn4 Os4 C24 N24,0.0488695117493414,Rb,Mn,Os,7.0
1110,,Rb1 V4 Fe4 C24 N24,0.380778071036147,Rb,Fe,V,1.0
1111,,Rb1 V4 Cr4 C24 N24,0.006038608208404739,Rb,Cr,V,1.0
1112,,,,,,,
1113,,Rb7 Mn4 Co4 C24 N24,0.15650293079696098,Rb,Mn,Co,7.0
1114,,Rb2 Co4 Os4 C24 N24,0.13640397925310133,Rb,Co,Os,2.0
1115,,Rb1 Mn4 Cr4 C24 N24,0.2637606945449189,Rb,Mn,Cr,1.0
1116,,Rb7 V4 Zn4 C24 N24,0.2830308755059532,Rb,Zn,V,7.0
1117,,Rb7 V4 Os4 C24 N24,0.05735075825727876,Rb,V,Os,7.0
1118,,Rb1 Zn4 Cr4 C24 N24,0.4193934190101789,Rb,Zn,Cr,1.0
1119,,Rb7 V4 Fe4 C24 N24,0.2478063682705045,Rb,Fe,V,7.0
1120,,,,,,,
1121,,Rb7 Fe4 Co4 C24 N24,0.17789013587632585,Rb,Fe,Co,7.0
1122,,Rb7 Zn4 Co4 C24 N24,0.19400949485780566,Rb,Zn,Co,7.0
1123,,Rb7 Mn4 Fe4 C24 N24,0.09212136446098107,Rb,Mn,Fe,7.0
1124,,Rb7 Mn4 Cr4 C24 N24,0.07728812668320195,Rb,Cr,Mn,7.0
1125,,,,,,,
1126,,,,,,,
1127,,Rb2 V4 Cr4 C24 N24,0.2484443092448245,Rb,V,Cr,2.0
1128,,Rb7 Mn4 V4 C24 N24,0.11766907033399575,Rb,V,Mn,7.0
1129,,Rb2 Mn4 Cr4 C24 N24,0.2430044545896504,Rb,Mn,Cr,2.0
1130,,Rb7 Zn4 Fe4 C24 N24,0.098032294077381,Rb,Zn,Fe,7.0
1131,,Rb7 Mn4 Co4 C24 N24,0.18301840619378584,Rb,Co,Mn,7.0
1132,,Rb7 Cr4 Co4 C24 N24,0.18914909619378492,Rb,Cr,Co,7.0
1133,,Rb7 Mn8 C24 N24,0.10811491684193086,Rb,Mn,Mn,7.0
1134,,,,,,,
1135,,Rb7 Mn4 Zn4 C24 N24,0.08109270986111472,Rb,Zn,Mn,7.0
1136,,Rb7 Mn4 Cr4 C24 N24,0.16388999842923546,Rb,Mn,Cr,7.0
1137,,Rb2 V4 Os4 C24 N24,0.08942646356344497,Rb,V,Os,2.0
1138,,,,,,,
1139,,Rb7 Fe8 C24 N24,0.08554130811177174,Rb,Fe,Fe,7.0
1140,,Rb2 Cr4 Os4 C24 N24,0.04404615994275396,Rb,Cr,Os,2.0
1141,,Rb2 Mn4 V4 C24 N24,0.3251845309689596,Rb,Mn,V,2.0
1142,,Rb7 Cr4 Co4 C24 N24,0.24114393063823056,Rb,Co,Cr,7.0
1143,,,,,,,
1144,,Rb2 Mn4 V4 C24 N24,0.21523683545171932,Rb,V,Mn,2.0
1145,,,,,,,
1146,,Rb7 Zn4 Cr4 C24 N24,0.20969568169642994,Rb,Zn,Cr,7.0
1147,,,,,,,
1148,,,,,,,
1149,,Rb2 V8 C24 N24,0.35701189752068885,Rb,V,V,2.0
1150,,,,,,,
1151,,,,,,,
1152,,Rb2 Mn4 Fe4 C24 N24,0.22550489079654845,Rb,Fe,Mn,2.0
1153,,,,,,,
1154,,Rb2 Cr8 C24 N24,0.2093620525206905,Rb,Cr,Cr,2.0
1155,,Rb2 Fe8 C24 N24,0.19944967062413888,Rb,Fe,Fe,2.0
1156,,Rb7 Mn4 Fe4 C24 N24,0.1310546417625691,Rb,Fe,Mn,7.0
1157,,,,,,,
1158,,Rb2 Mn4 Fe4 C24 N24,0.15337863993447876,Rb,Mn,Fe,2.0
1159,,Rb2 V4 Fe4 C24 N24,0.352804011313788,Rb,Fe,V,2.0
1160,,,,,,,
1161,,Rb2 Mn4 Cr4 C24 N24,0.17560239321034032,Rb,Cr,Mn,2.0
1162,,,,,,,
1163,,Rb2 V4 Zn4 C24 N24,0.4648351720813766,Rb,Zn,V,2.0
1164,,Rb2 Mn4 Os4 C24 N24,0.07401442011516934,Rb,Mn,Os,2.0
1165,,,,,,,
1166,,Rb2 Cr4 Fe4 C24 N24,0.12331644286551224,Rb,Cr,Fe,2.0
1167,,Rb2 Cr4 Co4 C24 N24,0.1392502185551674,Rb,Cr,Co,2.0
1168,,Rb2 Fe4 Co4 C24 N24,0.21062963148620464,Rb,Co,Fe,2.0
1169,,,,,,,
1170,,,,,,,
1171,,Rb2 Fe4 Os4 C24 N24,0.12014300839103065,Rb,Fe,Os,2.0
1172,,,,,,,
1173,,Rb2 Mn4 Co4 C24 N24,0.1818342937275812,Rb,Mn,Co,2.0
1174,,Rb2 Zn4 Os4 C24 N24,0.2574722563999972,Rb,Zn,Os,2.0
1175,,Rb2 V4 Co4 C24 N24,0.1745238421758568,Rb,V,Co,2.0
1176,,,,,,,
1177,,Rb2 V4 Fe4 C24 N24,0.17237438217585674,Rb,V,Fe,2.0
1178,,Rb2 Zn4 Cr4 C24 N24,0.3660068288055136,Rb,Zn,Cr,2.0
1179,,Rb2 Zn4 Fe4 C24 N24,0.3214920989779282,Rb,Zn,Fe,2.0
1180,,,,,,,
1181,,Rb2 Co8 C24 N24,0.1918316061413794,Rb,Co,Co,2.0
1182,,,,,,,
1183,,Rb2 Fe4 Co4 C24 N24,0.17186745148620375,Rb,Fe,Co,2.0
1184,,Rb2 V4 Cr4 C24 N24,0.3067937433827552,Rb,Cr,V,2.0
1185,,,,,,,
1186,,,,,,,
1187,,,,,,,
1188,,,,,,,
1189,,Rb2 Mn4 Zn4 C24 N24,0.32051568277103026,Rb,Zn,Mn,2.0
1190,,,,,,,
1191,,Rb2 Cr4 Fe4 C24 N24,0.2584470961413743,Rb,Fe,Cr,2.0
1192,,,,,,,
1193,,Rb6 V4 Fe4 C24 N24,0.11745648129704378,Rb,V,Fe,6.0
1194,,,,,,,
1195,,,,,,,
1196,,Rb6 Mn4 V4 C24 N24,0.14333670823252653,Rb,V,Mn,6.0
1197,,Rb6 V4 Os4 C24 N24,0.05918222782645266,Rb,V,Os,6.0
1198,,Rb2 V4 Co4 C24 N24,0.3801583652793053,Rb,Co,V,2.0
1199,,Rb6 Mn4 Fe4 C24 N24,0.11026866097446053,Rb,Mn,Fe,6.0
1200,,Rb6 Mn4 Co4 C24 N24,0.2104915020967741,Rb,Co,Mn,6.0
1201,,Rb6 Co4 Os4 C24 N24,0.0912161646006453,Rb,Co,Os,6.0
1202,,Rb6 Fe4 Os4 C24 N24,0.05653759814903302,Rb,Fe,Os,6.0
1203,,Rb6 Cr4 Fe4 C24 N24,0.087147210813173,Rb,Cr,Fe,6.0
1204,,,,,,,
1205,,,,,,,
1206,,Rb6 Mn4 Co4 C24 N24,0.1689892016129031,Rb,Mn,Co,6.0
1207,,Rb6 Fe8 C24 N24,0.11447503258736624,Rb,Fe,Fe,6.0
1208,,Rb6 Cr4 Fe4 C24 N24,0.19727158290994676,Rb,Fe,Cr,6.0
1209,,,,,,,
1210,,Rb6 Mn4 V4 C24 N24,0.21145722891129104,Rb,Mn,V,6.0
1211,,Rb6 V4 Cr4 C24 N24,0.19764929936155973,Rb,V,Cr,6.0
1212,,Rb6 V4 Fe4 C24 N24,0.27480953726478496,Rb,Fe,V,6.0
1213,,,,,,,
1214,,,,,,,
1215,,,,,,,
1216,,Rb6 Zn4 Fe4 C24 N24,0.14274844768145378,Rb,Zn,Fe,6.0
1217,,Rb6 Cr8 C24 N24,0.1824961114583328,Rb,Cr,Cr,6.0
1218,,Rb6 Fe4 Co4 C24 N24,0.17044803209676207,Rb,Fe,Co,6.0
1219,,Rb6 Zn4 Os4 C24 N24,0.11146732315188324,Rb,Zn,Os,6.0
1224,,,,,,,
1225,,,,,,,
1226,,Rb6 Fe4 Co4 C24 N24,0.15466874322579383,Rb,Co,Fe,6.0
1227,,,,,,,
1228,,,,,,,
1229,,,,,,,
1230,,Rb6 Mn4 Zn4 C24 N24,0.19374470348790407,Rb,Zn,Mn,6.0
1231,,Rb6 Zn4 Cr4 C24 N24,0.23090790590725874,Rb,Zn,Cr,6.0
1232,,,,,,,
1233,,,,,,,
1234,,,,,,,
1235,,Rb6 Mn4 Cr4 C24 N24,0.10710852726478493,Rb,Cr,Mn,6.0
1236,,,,,,,
1237,,Rb6 Mn4 Os4 C24 N24,0.05184802911677622,Rb,Mn,Os,6.0
1238,,,,,,,
1239,,Rb6 Mn4 Cr4 C24 N24,0.18671834145833444,Rb,Mn,Cr,6.0
1240,,,,,,,
1241,,,,,,,
1242,,Rb6 V4 Cr4 C24 N24,0.2534118879099463,Rb,Cr,V,6.0
1243,,,,,,,
1244,,Rb6 Mn8 C24 N24,0.13362788678091242,Rb,Mn,Mn,6.0
1245,,Rb6 Cr4 Co4 C24 N24,0.18548262080643774,Rb,Cr,Co,6.0
1246,,,,,,,
1247,,Rb6 V8 C24 N24,0.2835505929099451,Rb,V,V,6.0
1248,,,,,,,
1249,,,,,,,
1250,,,,,,,
1251,,Rb3 Fe4 Os4 C24 N24,0.09852932616644416,Rb,Fe,Os,3.0
1252,,Rb3 V4 Co4 C24 N24,0.16914261531085018,Rb,V,Co,3.0
1253,,Rb3 V8 C24 N24,0.34237502785321894,Rb,V,V,3.0
1254,,Rb5 Fe8 C24 N24,0.14178478455114707,Rb,Fe,Fe,5.0
1255,,,,,,,
1256,,Rb3 Mn4 Co4 C24 N24,0.1763780244633928,Rb,Mn,Co,3.0
1257,,Rb3 Cr4 Fe4 C24 N24,0.0995227181922047,Rb,Cr,Fe,3.0
1258,,Rb3 V4 Cr4 C24 N24,0.2738545751413586,Rb,Cr,V,3.0
1259,,Rb3 Zn4 Co4 C24 N24,0.21729887708237072,Rb,Zn,Co,3.0
1260,,Rb5 V4 Os4 C24 N24,0.061510459640985005,Rb,V,Os,5.0
1261,,,,,,,
1262,,Rb3 Mn4 Os4 C24 N24,0.06239270904779737,Rb,Mn,Os,3.0
1263,,Rb3 V4 Co4 C24 N24,0.3632370232769535,Rb,Co,V,3.0
1264,,Rb5 V4 Cr4 C24 N24,0.2640290975019699,Rb,Cr,V,5.0
1265,,,,,,,
1266,,,,,,,
1267,,Rb5 V4 Co4 C24 N24,0.19154149160033107,Rb,V,Co,5.0
1268,,Rb5 Fe4 Co4 C24 N24,0.15755685635442696,Rb,Fe,Co,5.0
1269,,Rb3 Fe4 Co4 C24 N24,0.1856176753108496,Rb,Co,Fe,3.0
1270,,Rb3 Fe4 Co4 C24 N24,0.15413762802271513,Rb,Fe,Co,3.0
1271,,Rb3 Zn4 Os4 C24 N24,0.22005270183626724,Rb,Zn,Os,3.0
1272,,Rb3 Cr8 C24 N24,0.20535822446338692,Rb,Cr,Cr,3.0
1273,,Rb3 Mn8 C24 N24,0.17955772971762762,Rb,Mn,Mn,3.0
1274,,Rb3 Mn4 Cr4 C24 N24,0.16008644870068167,Rb,Cr,Mn,3.0
1275,,Rb5 V4 Cr4 C24 N24,0.21833504274787074,Rb,V,Cr,5.0
1276,,Rb5 Cr8 C24 N24,0.19859180996098402,Rb,Cr,Cr,5.0
1277,,,,,,,
1278,,Rb3 Cr4 Fe4 C24 N24,0.23463917209051033,Rb,Fe,Cr,3.0
1279,,,,,,,
1280,,Rb3 Co8 C24 N24,0.19012817412440608,Rb,Co,Co,3.0
1281,,Rb5 Mn4 Fe4 C24 N24,0.07506843512492267,Rb,Mn,Fe,5.0
1283,,,,,,,
1284,,Rb3 Cr4 Co4 C24 N24,0.15076260751424186,Rb,Cr,Co,3.0
1285,,,,,,,
1286,,Rb5 Zn4 Co4 C24 N24,0.1870908018032731,Rb,Zn,Co,5.0
1287,,,,,,,
1288,,,,,,,
1289,,,,,,,
1290,,,,,,,
1291,,Rb8 V4 Fe4 C24 N24,0.08095046658854166,Rb,V,Fe,8.0
1292,,,,,,,
1293,,,,,,,
1294,,Rb8 Mn4 Zn4 C24 N24,0.128766188398437,Rb,Zn,Mn,8.0
1295,,Rb8 Cr4 Fe4 C24 N24,0.07594143674479081,Rb,Cr,Fe,8.0
1296,,Rb8 Mn4 V4 C24 N24,0.09466674252604079,Rb,V,Mn,8.0
1297,,Rb1 Fe4 Co4 C24 N24,0.24153877454491735,Rb,Co,Fe,1.0
1298,,Rb7 Mn4 V4 C24 N24,0.24670556398478993,Rb,Mn,V,7.0
1299,,,,,,,
1300,,Rb8 Mn4 Co4 C24 N24,0.15477567798177017,Rb,Co,Mn,8.0
1301,,Rb1 Mn4 Fe4 C24 N24,0.17094745928176103,Rb,Mn,Fe,1.0
1302,,,,,,,
1303,,,,,,,
1304,,,,,,,
1305,,Rb7 Co8 C24 N24,0.1856560823015867,Rb,Co,Co,7.0
1306,,Rb7 Cr4 Fe4 C24 N24,0.08136362239748962,Rb,Cr,Fe,7.0
1307,,Rb1 Zn4 Fe4 C24 N24,0.3662525326943884,Rb,Zn,Fe,1.0
1308,,,,,,,
1309,,,,,,,
1310,,Rb2 Cr4 Co4 C24 N24,0.2905928785551666,Rb,Co,Cr,2.0
1311,,,,,,,
1312,,,,,,,
1313,,,,,,,
1314,,,,,,,
1315,,,,,,,
1316,,,,,,,
1317,,,,,,,
1318,,,,,,,
1319,,,,,,,
1320,,,,,,,
1321,,,,,,,
1322,,,,,,,
1323,,Rb2 Mn4 Co4 C24 N24,0.2763085188999952,Rb,Co,Mn,2.0
1324,,,,,,,
1325,,,,,,,
1326,,,,,,,
1327,,,,,,,
1328,,,,,,,
1329,,,,,,,
1330,,,,,,,
1331,,,,,,,
1332,,,,,,,
1333,,,,,,,
1334,,Rb3 Mn4 Fe4 C24 N24,0.20800946412441057,Rb,Fe,Mn,3.0
1335,,,,,,,
1336,,Rb3 Co4 Os4 C24 N24,0.11039569294610274,Rb,Co,Os,3.0
1337,,,,,,,
1338,,,,,,,
1339,,,,,,,
1340,,,,,,,
1341,,,,,,,
1342,,Rb6 Zn4 Co4 C24 N24,0.19262244218414093,Rb,Zn,Co,6.0
1343,,,,,,,
1344,,Rb3 Cr4 Os4 C24 N24,0.023278001759662104,Rb,Cr,Os,3.0
1345,,,,,,,
1346,,,,,,,
1347,,Rb6 Mn4 Fe4 C24 N24,0.007396543640645348,Rb,Fe,Mn,6.0
1348,,,,,,,
1350,,,,,,,
1351,,,,,,,
1352,,,,,,,
1353,,Rb3 Mn4 Cr4 C24 N24,0.22864538632780018,Rb,Mn,Cr,3.0
1354,,,,,,,
1355,,,,,,,
1356,,,,,,,
1357,,,,,,,
1358,,,,,,,
1359,,,,,,,
1360,,,,,,,
1361,,Rb5 Cr4 Os4 C24 N24,0.01677147439508353,Rb,Cr,Os,5.0
1362,,Rb3 Zn4 Cr4 C24 N24,0.32034073369254035,Rb,Zn,Cr,3.0
1363,,,,,,,
1364,,,,,,,
1365,,,,,,,
1366,,,,,,,
1367,,,,,,,
1368,,Rb3 Mn4 V4 C24 N24,0.3101351525989866,Rb,Mn,V,3.0
1369,,,,,,,
1370,,,,,,,
1371,,,,,,,
1372,,,,,,,
1373,,,,,,,
1374,,Rb5 V4 Fe4 C24 N24,0.3001856548790194,Rb,Fe,V,5.0
1375,,,,,,,
1376,,,,,,,
1377,,Rb3 V4 Fe4 C24 N24,0.3315763454803413,Rb,Fe,V,3.0
1378,,Rb6 Co8 C24 N24,0.1876883264516156,Rb,Co,Co,6.0
1379,,Rb3 V4 Os4 C24 N24,0.07584059735288307,Rb,V,Os,3.0
1380,,,,,,,
1381,,,,,,,
1382,,,,,,,
1383,,Rb3 V4 Fe4 C24 N24,0.15679150327695268,Rb,V,Fe,3.0
1384,,,,,,,
1385,,Rb3 Mn4 Co4 C24 N24,0.26477833785322424,Rb,Co,Mn,3.0
1386,,,,,,,
1387,,Rb3 Cr4 Co4 C24 N24,0.28487912259898707,Rb,Co,Cr,3.0
1388,,,,,,,
1389,,,,,,,
1390,,Rb5 Co4 Os4 C24 N24,0.08858405488688703,Rb,Co,Os,5.0
1391,,Rb5 Zn4 Os4 C24 N24,0.1547144188954146,Rb,Zn,Os,5.0
1392,,Rb5 V8 C24 N24,0.30953905192819775,Rb,V,V,5.0
1393,,,,,,,
1394,,,,,,,
1395,,,,,,,
1396,,Rb5 Mn4 Cr4 C24 N24,0.20593084766590408,Rb,Mn,Cr,5.0
1397,,,,,,,
1398,,Rb3 Mn4 V4 C24 N24,0.19710632514135895,Rb,V,Mn,3.0
1399,,Rb3 V4 Cr4 C24 N24,0.230671815480342,Rb,V,Cr,3.0
1400,,Rb5 Mn4 Cr4 C24 N24,0.13276008127246186,Rb,Cr,Mn,5.0
1401,,,,,,,
1402,,,,,,,
1403,,,,,,,
1404,,,,,,,
1405,,,,,,,
1406,,,,,,,
1407,,,,,,,
1408,,Rb5 V4 Co4 C24 N24,0.34671558668229707,Rb,Co,V,5.0
1409,,Rb5 Mn4 Co4 C24 N24,0.0,Rb,Mn,Co,5.0
1410,,,,,,,
1411,,,,,,,
1413,,,,,,,
1414,,Rb5 Mn4 Fe4 C24 N24,0.18293976487901809,Rb,Fe,Mn,5.0
1415,,,,,,,
1416,,,,,,,
1417,,,,,,,
1418,,,,,,,
1419,,,,,,,
1420,,,,,,,
1421,,,,,,,
1422,,,,,,,
1423,,Rb5 Mn4 Zn4 C24 N24,0.2314080863217205,Rb,Zn,Mn,5.0
1424,,Rb4 Cr4 Os4 C24 N24,0.005943653349335776,Rb,Cr,Os,4.0
1425,,Rb5 Cr4 Co4 C24 N24,0.2745189604527871,Rb,Co,Cr,5.0
1426,,Rb5 Mn4 V4 C24 N24,0.29081086635442865,Rb,Mn,V,5.0
1427,,,,,,,
1428,,,,,,,
1429,,,,,,,
1430,,,,,,,
1431,,,,,,,
1432,,,,,,,
1433,,Rb5 Zn4 Cr4 C24 N24,0.25399857828893424,Rb,Zn,Cr,5.0
1434,,Rb5 Mn8 C24 N24,0.15570181242000025,Rb,Mn,Mn,5.0
1435,,,,,,,
1436,,,,,,,
1437,,,,,,,
1438,,,,,,,
1439,,,,,,,
1440,,Rb4 Co4 Os4 C24 N24,0.08544063734933438,Rb,Co,Os,4.0
1441,,,,,,,
1442,,Rb4 V4 Co4 C24 N24,0.17003290034133656,Rb,V,Co,4.0
1443,,Rb5 Cr4 Fe4 C24 N24,0.09081022930524618,Rb,Cr,Fe,5.0
1444,,Rb4 Mn4 V4 C24 N24,0.2965623981746699,Rb,Mn,V,4.0
1445,,Rb4 Mn4 Cr4 C24 N24,0.21510781550800395,Rb,Mn,Cr,4.0
1446,,Rb5 Fe4 Os4 C24 N24,0.07169112160819857,Rb,Fe,Os,5.0
1447,,,,,,,
1448,,,,,,,
1449,,Rb4 Fe4 Co4 C24 N24,0.13878919984133553,Rb,Fe,Co,4.0
1450,,Rb4 Cr4 Fe4 C24 N24,0.214046718008003,Rb,Fe,Cr,4.0
1451,,Rb4 Mn8 C24 N24,0.16397768934133694,Rb,Mn,Mn,4.0
1452,,,,,,,
1453,,Rb4 Mn4 V4 C24 N24,0.17536791434133647,Rb,V,Mn,4.0
1454,,Rb4 Mn4 Zn4 C24 N24,0.27419837524999924,Rb,Zn,Mn,4.0
1455,,Rb4 Zn4 Co4 C24 N24,0.16959430258333175,Rb,Zn,Co,4.0
1456,,Rb5 Co8 C24 N24,0.19021400963311486,Rb,Co,Co,5.0
1457,,,,,,,
1459,,,,,,,
1460,,,,,,,
1461,,,,,,,
1462,,,,,,,
1464,,,,,,,
1465,,Rb5 Fe4 Co4 C24 N24,0.1598106484855748,Rb,Co,Fe,5.0
1466,,,,,,,
1467,,Rb4 V4 Cr4 C24 N24,0.2164994178413373,Rb,V,Cr,4.0
1468,,Rb4 Mn4 Fe4 C24 N24,0.19082595200800334,Rb,Fe,Mn,4.0
1469,,Rb4 Cr4 Fe4 C24 N24,0.08078446100800285,Rb,Cr,Fe,4.0
1470,,Rb4 V4 Fe4 C24 N24,0.3144427863413384,Rb,Fe,V,4.0
1471,,,,,,,
1472,,,,,,,
1473,,Rb4 V4 Fe4 C24 N24,0.1420354188413384,Rb,V,Fe,4.0
1474,,Rb4 Zn4 Cr4 C24 N24,0.27909160874999905,Rb,Zn,Cr,4.0
1475,,,,,,,
1476,,,,,,,
1477,,Rb4 Fe8 C24 N24,0.15604899834133512,Rb,Fe,Fe,4.0
1478,,,,,,,
1479,,,,,,,
1480,,Rb4 Mn4 Fe4 C24 N24,0.13018376300800227,Rb,Mn,Fe,4.0
1481,,Rb4 Cr4 Co4 C24 N24,0.27837597717467055,Rb,Co,Cr,4.0
1482,,Rb4 Cr4 Co4 C24 N24,0.16115826017466972,Rb,Cr,Co,4.0
1483,,Rb4 Cr8 C24 N24,0.20288711617466682,Rb,Cr,Cr,4.0
1484,,,,,,,
1485,,,,,,,
1486,,,,,,,
1487,,Rb4 Mn4 Cr4 C24 N24,0.14279368117466973,Rb,Cr,Mn,4.0
1488,,,,,,,
1489,,Rb4 Fe4 Co4 C24 N24,0.16117365767467007,Rb,Co,Fe,4.0
1490,,,,,,,
1491,,,,,,,
1492,,,,,,,
1493,,Rb4 V4 Os4 C24 N24,0.06375403801600221,Rb,V,Os,4.0
1494,,,,,,,
1495,,Rb5 Cr4 Fe4 C24 N24,0.2176233555347551,Rb,Fe,Cr,5.0
1496,,,,,,,
1497,,,,,,,
1498,,,,,,,
1499,,,,,,,
1500,,,,,,,
1501,,,,,,,
1502,,,,,,,
1503,,,,,,,
1504,,Rb4 V8 C24 N24,0.3214671033413339,Rb,V,V,4.0
1505,,,,,,,
1506,,Ca2 Mn4 Fe4 C24 N24,0.31447139551333336,Ca,Fe,Mn,2.0
1507,,,,,,,
1508,,,,,,,
1509,,,,,,,
1510,,,,,,,
1511,,Rb4 Mn4 Os4 C24 N24,0.055581505516002494,Rb,Mn,Os,4.0
1512,,Rb4 V4 Co4 C24 N24,0.35529915917467036,Rb,Co,V,4.0
1513,,,,,,,
1514,,,,,,,
1515,,,,,,,
1516,,Rb4 V4 Cr4 C24 N24,0.26747721900800414,Rb,Cr,V,4.0
1517,,,,,,,
1518,,,,,,,
1519,,,,,,,
1520,,,,,,,
1521,,,,,,,
1522,,Rb4 Fe4 Os4 C24 N24,0.07957593418266917,Rb,Fe,Os,4.0
1523,,,,,,,
1524,,Rb4 Zn4 Fe4 C24 N24,0.24417490824999977,Rb,Zn,Fe,4.0
1525,,,,,,,
1526,,,,,,,
1527,,,,,,,
1528,,,,,,,
1529,,,,,,,
1530,,,,,,,
1531,,,,,,,
1532,,,,,,,
1533,,,,,,,
1534,,,,,,,
1535,,,,,,,
1536,,,,,,,
1537,,,,,,,
1538,,,,,,,
1539,,,,,,,
1540,,,,,,,
1541,,,,,,,
1542,,,,,,,
1543,,,,,,,
1544,,,,,,,
1545,,,,,,,
1546,,,,,,,
1547,,,,,,,
1548,,,,,,,
1549,,,,,,,
1550,,Rb4 Zn4 Os4 C24 N24,0.19017149542466427,Rb,Zn,Os,4.0
1551,,,,,,,
1552,,,,,,,
1553,,Rb4 V4 Zn4 C24 N24,0.40053810808333346,Rb,Zn,V,4.0
1554,,,,,,,
1555,,,,,,,
1556,,,,,,,
1557,,Rb5 Zn4 Fe4 C24 N24,0.1922409604200812,Rb,Zn,Fe,5.0
1558,,,,,,,
1559,,,,,,,
1560,,,,,,,
1561,,,,,,,
1562,,,,,,,
1563,,,,,,,
1564,,,,,,,
1565,,,,,,,
1566,,,,,,,
1567,,,,,,,
1568,,,,,,,
1569,,,,,,,
1570,,,,,,,
1571,,,,,,,
1572,,,,,,,
1573,,Rb4 Mn4 Co4 C24 N24,0.2496589241746694,Rb,Co,Mn,4.0
1574,,,,,,,
1575,,,,,,,
1576,,,,,,,
1577,,,,,,,
1578,,Li2 Mn4 V4 C24 N24,0.26647519895137606,Li,V,Mn,2.0
1579,,,,,,,
1580,,,,,,,
1581,,,,,,,
1582,,Rb4 Mn4 Co4 C24 N24,0.17584468584133717,Rb,Mn,Co,4.0
1583,,,,,,,
1584,,,,,,,
1585,,,,,,,
1586,,Mg2 Mn8 C24 N24,0.35221680281218504,Mg,Mn,Mn,2.0
1587,,,,,,,
1588,,,,,,,
1589,,,,,,,
1590,,,,,,,
1591,,,,,,,
1592,,,,,,,
1593,,,,,,,
1594,,,,,,,
1595,,Li2 Cr4 Co4 C24 N24,0.19682638533068442,Li,Cr,Co,2.0
1596,,Mg2 Mn4 Cr4 C24 N24,0.40162299970873505,Mg,Mn,Cr,2.0
1597,,,,,,,
1598,,Na2 V4 Os4 C24 N24,0.12342434186804496,Na,V,Os,2.0
1599,,,,,,,
1600,,,,,,,
1601,,,,,,,
1602,,,,,,,
1603,,,,,,,
1604,,,,,,,
1605,,,,,,,
1606,,,,,,,
1607,,,,,,,
1608,,,,,,,
1609,,,,,,,
1610,,,,,,,
1611,,,,,,,
1612,,,,,,,
1613,,,,,,,
1614,,,,,,,
1615,,,,,,,
1616,,,,,,,
1617,,,,,,,
1618,,,,,,,
1619,,,,,,,
1620,,,,,,,
1621,,,,,,,
1622,,,,,,,
1623,,,,,,,
1624,,,,,,,
1625,,,,,,,
1626,,,,,,,
1627,,,,,,,
1628,,,,,,,
1629,,Li2 Mn4 Zn4 C24 N24,0.3804389855810326,Li,Zn,Mn,2.0
1630,,Ca2 V4 Cr4 C24 N24,0.3559245751685065,Ca,V,Cr,2.0
1631,,,,,,,
1632,,Na2 Mn4 V4 C24 N24,0.24531162289425268,Na,V,Mn,2.0
1633,,,,,,,
1634,,,,,,,
1635,,,,,,,
1636,,Sr2 Cr4 Co4 C24 N24,0.23134518746735822,Sr,Cr,Co,2.0
1637,,,,,,,
1638,,,,,,,
1639,,K2 V4 Fe4 C24 N24,0.17926966809540268,K,V,Fe,2.0
1640,,,,,,,
1641,,,,,,,
1642,,,,,,,
1643,,,,,,,
1644,,,,,,,
1645,,,,,,,
1646,,,,,,,
1647,,Li2 Mn4 Co4 C24 N24,0.3312771848134446,Li,Co,Mn,2.0
1648,,,,,,,
1649,,,,,,,
1650,,,,,,,
1651,,,,,,,
1652,,Na6 Co4 Os4 C24 N24,0.1825233258103225,Na,Co,Os,6.0
1653,,,,,,,
1654,,,,,,,
1655,,,,,,,
1656,,,,,,,
1658,,,,,,,
1659,,,,,,,
1660,,Li6 Zn4 Fe4 C24 N24,0.3508058772293552,Li,Zn,Fe,6.0
1661,,,,,,,
1662,,Na6 Co8 C24 N24,0.2762289868548402,Na,Co,Co,6.0
1663,,,,,,,
1664,,,,,,,
1665,,,,,,,
1666,,,,,,,
1667,,Na6 Zn4 Cr4 C24 N24,0.34477626110887094,Na,Zn,Cr,6.0
1668,,Na6 Cr4 Co4 C24 N24,0.3572536149193546,Na,Co,Cr,6.0
1669,,,,,,,
1670,,,,,,,
1671,,,,,,,
1672,,,,,,,
1673,,,,,,,
1674,,,,,,,
1675,,K6 Cr4 Co4 C24 N24,0.2047093196774199,K,Cr,Co,6.0
1676,,,,,,,
1677,,,,,,,
1678,,Li6 Mn4 Fe4 C24 N24,0.3283131626403213,Li,Fe,Mn,6.0
1679,,,,,,,
1680,,Na6 Zn4 Fe4 C24 N24,0.2539523148185481,Na,Zn,Fe,6.0
1681,,,,,,,
1682,,,,,,,
1683,,Ca6 Fe4 Co4 C24 N24,0.5198797529916135,Ca,Co,Fe,6.0
1684,,,,,,,
1685,,,,,,,
1686,,,,,,,
1687,,,,,,,
1688,,,,,,,
1689,,Ca6 Cr4 Co4 C24 N24,0.5834876300883893,Ca,Cr,Co,6.0
1690,,,,,,,
1691,,,,,,,
1692,,K6 Co8 C24 N24,0.20830918967742296,K,Co,Co,6.0
1693,,Li6 V4 Co4 C24 N24,0.5063115213499998,Li,Co,V,6.0
1694,,,,,,,
1695,,,,,,,
1696,,K6 Zn4 Co4 C24 N24,0.21750892660618248,K,Zn,Co,6.0
1697,,Ca6 V4 Co4 C24 N24,0.6502813758948394,Ca,V,Co,6.0
1698,,,,,,,
1699,,,,,,,
1700,,,,,,,
1701,,,,,,,
1702,,,,,,,
1703,,,,,,,
1704,,,,,,,
1705,,,,,,,
1706,,,,,,,
1707,,,,,,,
1708,,,,,,,
1709,,,,,,,
1710,,,,,,,
1711,,K6 Cr4 Fe4 C24 N24,0.10819431991263428,K,Cr,Fe,6.0
1712,,,,,,,
1713,,,,,,,
1714,,,,,,,
1715,,,,,,,
1716,,Li4 Mn4 V4 C24 N24,0.4184323032740025,Li,Mn,V,4.0
1717,,,,,,,
1718,,,,,,,
1719,,,,,,,
1720,,Ca4 Mn8 C24 N24,0.37608772296044357,Ca,Mn,Mn,4.0
1721,,,,,,,
1722,,,,,,,
1723,,,,,,,
1724,,,,,,,
1725,,,,,,,
1726,,Sr4 Mn4 V4 C24 N24,0.31293771840489093,Sr,V,Mn,4.0
1727,,,,,,,
1728,,K4 Mn4 Fe4 C24 N24,0.20672518228577985,K,Fe,Mn,4.0
1729,,,,,,,
1730,,,,,,,
1731,,Na4 Mn4 V4 C24 N24,0.3669541613968903,Na,Mn,V,4.0