,Composition,Formula,e_above_hull,A_atom,P_atom,R_atom,n_A
3472,Sr4 V4 Cu4 C24 N24,Sr4 V4 Cu4 C24 N24,0.005491380000000046,Sr,Cu,V,4.0
3484,Ca4 V4 Cu4 C24 N24,Ca4 V4 Cu4 C24 N24,0.4185173499999999,Ca,Cu,V,4.0
3492,Li5 V4 Cu4 C24 N24,Li5 V4 Cu4 C24 N24,0.0028601699999999397,Li,Cu,V,5.0
3493,Mg6 Mn4 Cu4 C24 N24,Mg6 Mn4 Cu4 C24 N24,0.03918191000000015,Mg,Cu,Mn,6.0
3528,K7 Ni4 Os4 C24 N24,K7 Ni4 Os4 C24 N24,0.11553698000000001,K,Ni,Os,7.0
3536,K5 Co4 Ni4 C24 N24,K5 Co4 Ni4 C24 N24,0.11553698000000001,K,Ni,Co,5.0
3537,Mg5 Co4 Cu4 C24 N24,Mg5 Co4 Cu4 C24 N24,0.03918191000000015,Mg,Cu,Co,5.0
3550,Na6 Fe4 Ni4 C24 N24,Na6 Fe4 Ni4 C24 N24,0.12850119249999992,Na,Ni,Fe,6.0
3558,Sr3 Ni4 Os4 C24 N24,Sr3 Ni4 Os4 C24 N24,0.005491380000000046,Sr,Ni,Os,3.0
3569,K7 Co4 Cu4 C24 N24,K7 Co4 Cu4 C24 N24,0.11553698000000001,K,Cu,Co,7.0
3578,Mg7 Fe4 Cu4 C24 N24,Mg7 Fe4 Cu4 C24 N24,0.03918191000000015,Mg,Cu,Fe,7.0
3580,Mg5 Ni4 Os4 C24 N24,Mg5 Ni4 Os4 C24 N24,0.03918191000000015,Mg,Ni,Os,5.0
3582,Ca3 Cr4 Ni4 C24 N24,Ca3 Cr4 Ni4 C24 N24,0.4185173499999999,Ca,Ni,Cr,3.0
3600,Sr2 Fe4 Ni4 C24 N24,Sr2 Fe4 Ni4 C24 N24,0.005491380000000046,Sr,Ni,Fe,2.0
3633,Ca5 Co4 Cu4 C24 N24,Ca5 Co4 Cu4 C24 N24,0.4185173499999999,Ca,Cu,Co,5.0
3635,Mg2 Mn4 Cu4 C24 N24,Mg2 Mn4 Cu4 C24 N24,0.03918191000000015,Mg,Cu,Mn,2.0
3644,Na1 V4 Cu4 C24 N24,Na1 V4 Cu4 C24 N24,0.12850119249999992,Na,Cu,V,1.0
3650,Mg3 Cu4 Os4 C24 N24,Mg3 Cu4 Os4 C24 N24,0.03918191000000015,Mg,Cu,Os,3.0
3669,Ca1 Cu4 Os4 C24 N24,Ca1 Cu4 Os4 C24 N24,0.4185173499999999,Ca,Cu,Os,1.0
3675,Li7 V4 Cu4 C24 N24,Li7 V4 Cu4 C24 N24,0.0028601699999999397,Li,Cu,V,7.0
3713,Li4 V4 Cu4 C24 N24,Li4 V4 Cu4 C24 N24,0.0028601699999999397,Li,Cu,V,4.0
3721,Sr1 Cu4 Os4 C24 N24,Sr1 Cu4 Os4 C24 N24,0.005491380000000046,Sr,Cu,Os,1.0
3741,Li7 Mn4 Ni4 C24 N24,Li7 Mn4 Ni4 C24 N24,0.0028601699999999397,Li,Ni,Mn,7.0
3747,Sr6 Co4 Ni4 C24 N24,Sr6 Co4 Ni4 C24 N24,0.005491380000000046,Sr,Ni,Co,6.0
3750,Sr3 Cr4 Ni4 C24 N24,Sr3 Cr4 Ni4 C24 N24,0.005491380000000046,Sr,Ni,Cr,3.0
3753,Li6 V4 Cu4 C24 N24,Li6 V4 Cu4 C24 N24,0.0028601699999999397,Li,Cu,V,6.0